[Molden Format]
made by pyscf v[2.9.0]
[Atoms] (AU)
H   1   1     0.00000000000000     0.00000000000000     0.00000000000000
H   2   1     0.00000000000000     3.77945224913012     0.00000000000000
H   3   1     1.88972612456506     1.88972612456506     0.00000000000000
H   4   1    -1.88972612456506     1.88972612456506     0.00000000000000
[GTO]
1 0
 s    3 1.00
                 13.01   0.033498726389998
                 1.962    0.23480080117413
                0.4446     0.8136829578829
 s    1 1.00
                 0.122                   1
 p    1 1.00
                 0.727                   1

2 0
 s    3 1.00
                 13.01   0.033498726389998
                 1.962    0.23480080117413
                0.4446     0.8136829578829
 s    1 1.00
                 0.122                   1
 p    1 1.00
                 0.727                   1

3 0
 s    3 1.00
                 13.01   0.033498726389998
                 1.962    0.23480080117413
                0.4446     0.8136829578829
 s    1 1.00
                 0.122                   1
 p    1 1.00
                 0.727                   1

4 0
 s    3 1.00
                 13.01   0.033498726389998
                 1.962    0.23480080117413
                0.4446     0.8136829578829
 s    1 1.00
                 0.122                   1
 p    1 1.00
                 0.727                   1

[5d]
[7f]
[9g]

[MO]
 Sym= A
 Ene=               0
 Spin= Alpha
 Occup=    1.00000
   1     -0.26341974536661
   2     -0.14414051496734
   3    -1.3630549343425e-12
   4    -0.014088563034643
   5    -1.9562078820841e-16
   6     -0.26341974536661
   7     -0.14414051496734
   8    1.363120555884e-12
   9     0.014088563034643
  10    -1.8910096115172e-16
  11     -0.24829789807974
  12     -0.12919732303136
  13     0.014426506487229
  14    3.4881776700072e-13
  15    -1.6195871639902e-16
  16     -0.24829789807974
  17     -0.12919732303136
  18    -0.014426506487229
  19    -3.4873219740767e-13
  20    -1.592525233707e-16
 Sym= A
 Ene=               1
 Spin= Alpha
 Occup=    1.00000
   1    1.6532984157792e-06
   2    1.7551878700196e-06
   3     0.015008385620119
   4    1.3613477614702e-08
   5    -7.7175643645888e-18
   6    -1.6532984153497e-06
   7    -1.7551878709404e-06
   8     0.015008385620119
   9    1.3613477830872e-08
  10    2.5704988778028e-17
  11      0.42570819416442
  12      0.45203380228323
  13    -0.0035048407168433
  14    -5.8261401094969e-08
  15    3.5271157576794e-17
  16     -0.42570819416442
  17     -0.45203380228323
  18    -0.0035048407168433
  19    -5.826140101573e-08
  20    -2.8941120062078e-17
 Sym= A
 Ene=               2
 Spin= Alpha
 Occup=    0.00000
   1     -0.42574515429733
   2     -0.45198691607813
   3    5.8282799220028e-08
   4    -0.0035040296938926
   5    1.4144203353135e-17
   6      0.42574515429733
   7      0.45198691607813
   8    5.8282799254642e-08
   9    -0.0035040296938926
  10    3.609358101742e-18
  11     1.65314509843e-06
  12    1.7553812553299e-06
  13    -1.3608180538967e-08
  14      0.01500320791012
  15    4.7395655923758e-18
  16    -1.6531450992194e-06
  17    -1.7553812571326e-06
  18    -1.3608180363122e-08
  19      0.01500320791012
  20     2.81277213718e-18
 Sym= A
 Ene=               3
 Spin= Alpha
 Occup=    0.00000
   1     -0.45200551210824
   2     -0.44905056007124
   3    1.3533298247544e-13
   4     0.010448071055722
   5    5.705927090108e-16
   6     -0.45200551210824
   7     -0.44905056007123
   8    -1.3544187597269e-13
   9    -0.010448071055722
  10    5.5629665568653e-16
  11      0.46050996681234
  12      0.45356316963996
  13    0.0099927456720313
  14    -3.4086524770991e-12
  15    4.8009598300683e-16
  16      0.46050996681234
  17      0.45356316963996
  18    -0.0099927456720313
  19    3.408682979008e-12
  20    4.8479211919625e-16
