#INFO: **** input file is /project/lgagliardi/jtejada/examples/LASPrep/HeH2/HeH2.py ****
from pyscf import gto, scf, mcscf
from pyscf.mcscf import avas
from pyscf.csf_fci import csf_solver
from pyscf.csf_fci.csfstring import count_all_csfs
import numpy as np
import matplotlib.pyplot as plt
from pyscf.tools import molden

def run(b):


    mol = gto.M(
        atom = f'H 0 0 {-b}; He 0 0 0; H 0 0 {b}',
        basis = 'ccpvdz',
        charge = 0,
        spin = 0,
        verbose = 4,
        max_memory = 40000
    )

    ncas = 2     # Number of active orbitals
    nelecas = 2   # Number of active electrons
    mf = scf.RHF(mol).run()

    #Set up solvers for singlet
    solvers = csf_solver(mol, smult=1)
    solvers.nroots = 3

    solverstri = csf_solver(mol, smult=3)
    solverstri.nroots = 1

    # Weights
    weights = np.ones(solvers.nroots+ solverstri.nroots) / (solvers.nroots+ solverstri.nroots)
    mo_coeff = avas.kernel(mf, ['H 1s'],minao=mol.basis)[2]

    #Run CASSCF
    sing = mcscf.CASSCF(mf, ncas, nelecas)
    sing = mcscf.state_average_mix_(sing, [solvers,solverstri], weights)
    print(f'Distance = {b}')
    sing.kernel(mo_coeff)
    sing_e = sing.e_states

    return sing_e

x = [i/20 for i in range(10, 61, 1)]


for b in x:
    sing = (run(b))#INFO: ******************** input file end ********************


System: uname_result(system='Linux', node='midway3-0075.rcc.local', release='4.18.0-305.3.1.el8.x86_64', version='#1 SMP Tue Jun 1 16:14:33 UTC 2021', machine='x86_64')  Threads 4
Python 3.11.5 (main, Nov 30 2024, 03:04:01) [GCC 13.2.0]
numpy 2.3.1  scipy 1.16.0  h5py 3.14.0
Date: Thu Jul 24 10:30:30 2025
PySCF version 2.9.0
PySCF path  /home/jtejada/summerRotation/lib/python3.11/site-packages/pyscf

[CONFIG] conf_file None
[INPUT] verbose = 4
[INPUT] num. atoms = 3
[INPUT] num. electrons = 4
[INPUT] charge = 0
[INPUT] spin (= nelec alpha-beta = 2S) = 0
[INPUT] symmetry False subgroup None
[INPUT] Mole.unit = angstrom
[INPUT] Symbol           X                Y                Z      unit          X                Y                Z       unit  Magmom
[INPUT]  1 H      0.000000000000   0.000000000000  -0.500000000000 AA    0.000000000000   0.000000000000  -0.944863062283 Bohr   0.0
[INPUT]  2 He     0.000000000000   0.000000000000   0.000000000000 AA    0.000000000000   0.000000000000   0.000000000000 Bohr   0.0
[INPUT]  3 H      0.000000000000   0.000000000000   0.500000000000 AA    0.000000000000   0.000000000000   0.944863062283 Bohr   0.0

nuclear repulsion = 4.76259489828
number of shells = 9
number of NR pGTOs = 21
number of NR cGTOs = 15
basis = ccpvdz
ecp = {}
CPU time:         1.40


******** <class 'pyscf.scf.hf.RHF'> ********
method = RHF
initial guess = minao
damping factor = 0
level_shift factor = 0
DIIS = <class 'pyscf.scf.diis.CDIIS'>
diis_start_cycle = 1
diis_space = 8
diis_damp = 0
SCF conv_tol = 1e-09
SCF conv_tol_grad = None
SCF max_cycles = 50
direct_scf = True
direct_scf_tol = 1e-13
chkfile to save SCF result = /scratch/local/jobs/33497194/tmp_f14j96p
max_memory 40000 MB (current use 104 MB)
Set gradient conv threshold to 3.16228e-05
Initial guess from minao.
init E= -4.39717882526388
  HOMO = -0.00793897006449151  LUMO = 0.147752810315066
cycle= 1 E= -3.04496349315036  delta_E= 1.35  |g|= 0.444  |ddm|= 4.35
  HOMO = -0.330563699805954  LUMO = 0.121675618170203
cycle= 2 E= -3.09409471579041  delta_E= -0.0491  |g|= 0.0454  |ddm|= 1.28
  HOMO = -0.285511077186397  LUMO = 0.148493425203048
cycle= 3 E= -3.0944308868931  delta_E= -0.000336  |g|= 0.00614  |ddm|= 0.0643
  HOMO = -0.285198454246892  LUMO = 0.148295512277871
cycle= 4 E= -3.09444053643837  delta_E= -9.65e-06  |g|= 0.000578  |ddm|= 0.00989
  HOMO = -0.285406716790752  LUMO = 0.148038095243878
cycle= 5 E= -3.09444065701485  delta_E= -1.21e-07  |g|= 6.82e-05  |ddm|= 0.00231
  HOMO = -0.28542617265767  LUMO = 0.148020010826856
cycle= 6 E= -3.09444065871491  delta_E= -1.7e-09  |g|= 1.87e-06  |ddm|= 0.000305
  HOMO = -0.285425083930788  LUMO = 0.148019543778142
cycle= 7 E= -3.09444065871603  delta_E= -1.12e-12  |g|= 2.05e-07  |ddm|= 7.08e-06
  HOMO = -0.285425137732434  LUMO = 0.14801964335163
Extra cycle  E= -3.09444065871604  delta_E= -7.11e-15  |g|= 2.06e-08  |ddm|= 6.79e-07
converged SCF energy = -3.09444065871604

******** AVAS flags ********
aolabels = ['H 1s']
ncore = 0
minao = ccpvdz
threshold = 0.2
with_iao = False
openshell_option = 2
canonicalize = True

** AVAS **
  Total number of HF MOs  is equal to    15
  Number of occupied HF MOs is equal to  2
reference AO indices for ccpvdz ['H 1s']:
 [ 0 10]
Option 2: threshold 0.2
Active from occupied = 2 , eig [0.77134374 0.83581692]
Inactive from occupied = 0
Active from unoccupied = 1 , eig [0.22865626]
Inactive from unoccupied = 12
Dimensions of active 3
# of alpha electrons 2
# of beta electrons 2
Distance = 0.5

******** <class 'pyscf.mcscf.addons.StateAverageCASSCF'> ********
CAS (1e+1e, 2o), ncore = 1, nvir = 12
max_cycle_macro = 50
max_cycle_micro = 4
conv_tol = 1e-07
conv_tol_grad = None
orbital rotation max_stepsize = 0.02
orbital rotation threshold for CI restart = 0.01
augmented hessian ah_max_cycle = 30
augmented hessian ah_conv_tol = 1e-12
augmented hessian ah_linear dependence = 1e-14
augmented hessian ah_level shift = 1e-08
augmented hessian ah_start_tol = 2.5
augmented hessian ah_start_cycle = 3
augmented hessian ah_grad_trust_region = 3
kf_trust_region = 3
kf_interval = 4
ci_response_space = 4
ci_grad_trust_region = 3
with_dep4 0
natorb = False
canonicalization = True
sorting_mo_energy = False
ao2mo_level = 2
chkfile = /scratch/local/jobs/33497194/tmp_f14j96p
max_memory 40000 MB (current use 122 MB)
internal_rotation = False
******** <class 'pyscf.mcscf.addons.StateAverageMixFCISolver'> ********
max. cycles = 100
conv_tol = 1e-10
davidson only = False
linear dependence = 1e-14
level shift = 0.001
max iter space = 12
max_memory 40000 MB
nroots = 4
pspace_size = 200
spin = None
State-average over 4 states with weights [0.25 0.25 0.25 0.25]
CASCI E = -2.04725163564216  S^2 = 0.5000000
Set conv_tol_grad to 0.000316228
macro iter   1 ( 19 JK    4 micro), CASSCF E = -2.39052979994602  dE = -3.43278164e-01  S^2 = 0.5000000
               |grad[o]|= 1.12  |ddm|=8.55e-30  |maxRot[o]|=0.276
macro iter   2 ( 21 JK    4 micro), CASSCF E = -2.73928317554285  dE = -3.48753376e-01  S^2 = 0.5000000
               |grad[o]|=0.995  |ddm|=2.22e-16  |maxRot[o]|=0.314
macro iter   3 ( 21 JK    4 micro), CASSCF E = -2.92670811416272  dE = -1.87424939e-01  S^2 = 0.5000000
               |grad[o]|= 0.68  |ddm|=2.22e-16  |maxRot[o]|=0.314
macro iter   4 ( 10 JK    4 micro), CASSCF E = -2.93109195538880  dE = -4.38384123e-03  S^2 = 0.5000000
               |grad[o]|= 0.12  |ddm|=2.22e-16  |maxRot[o]|=0.0415
macro iter   5 (  5 JK    2 micro), CASSCF E = -2.93109243997397  dE = -4.84585174e-07  S^2 = 0.5000000
               |grad[o]|=0.000813  |ddm|=2.22e-16  |maxRot[o]|=0.000552
macro iter   6 (  1 JK    1 micro), CASSCF E = -2.93109243997397  dE =  0.00000000e+00  S^2 = 0.5000000
               |grad[o]|=1.12e-05  |ddm|=2.28e-27  |maxRot[o]|=    0
1-step CASSCF converged in   6 macro ( 77 JK  19 micro) steps
CASSCF canonicalization
Density matrix diagonal elements [1. 1.]
CASSCF energy = -2.93109243997397
CASCI E = -2.93109243997397  E(CI) = -0.894606825011699  S^2 = 0.5000000
CASCI state-averaged energy = -2.93109243997397
CASCI energy for each state
  State 0 weight 0.25  E = -3.09374329687167 S^2 = 0.0000000
  State 1 weight 0.25  E = -2.91150706321018 S^2 = 0.0000000
  State 2 weight 0.25  E = -2.70825383165512 S^2 = 0.0000000
  State 3 weight 0.25  E = -3.01086556815891 S^2 = 2.0000000
#INFO: **** input file is /project/lgagliardi/jtejada/examples/LASPrep/HeH2/HeH2.py ****
from pyscf import gto, scf, mcscf
from pyscf.mcscf import avas
from pyscf.csf_fci import csf_solver
from pyscf.csf_fci.csfstring import count_all_csfs
import numpy as np
import matplotlib.pyplot as plt
from pyscf.tools import molden

def run(b):


    mol = gto.M(
        atom = f'H 0 0 {-b}; He 0 0 0; H 0 0 {b}',
        basis = 'ccpvdz',
        charge = 0,
        spin = 0,
        verbose = 4,
        max_memory = 40000
    )

    ncas = 2     # Number of active orbitals
    nelecas = 2   # Number of active electrons
    mf = scf.RHF(mol).run()

    #Set up solvers for singlet
    solvers = csf_solver(mol, smult=1)
    solvers.nroots = 3

    solverstri = csf_solver(mol, smult=3)
    solverstri.nroots = 1

    # Weights
    weights = np.ones(solvers.nroots+ solverstri.nroots) / (solvers.nroots+ solverstri.nroots)
    mo_coeff = avas.kernel(mf, ['H 1s'],minao=mol.basis)[2]

    #Run CASSCF
    sing = mcscf.CASSCF(mf, ncas, nelecas)
    sing = mcscf.state_average_mix_(sing, [solvers,solverstri], weights)
    print(f'Distance = {b}')
    sing.kernel(mo_coeff)
    sing_e = sing.e_states

    return sing_e

x = [i/20 for i in range(10, 61, 1)]


for b in x:
    sing = (run(b))#INFO: ******************** input file end ********************


System: uname_result(system='Linux', node='midway3-0075.rcc.local', release='4.18.0-305.3.1.el8.x86_64', version='#1 SMP Tue Jun 1 16:14:33 UTC 2021', machine='x86_64')  Threads 4
Python 3.11.5 (main, Nov 30 2024, 03:04:01) [GCC 13.2.0]
numpy 2.3.1  scipy 1.16.0  h5py 3.14.0
Date: Thu Jul 24 10:30:35 2025
PySCF version 2.9.0
PySCF path  /home/jtejada/summerRotation/lib/python3.11/site-packages/pyscf

[CONFIG] conf_file None
[INPUT] verbose = 4
[INPUT] num. atoms = 3
[INPUT] num. electrons = 4
[INPUT] charge = 0
[INPUT] spin (= nelec alpha-beta = 2S) = 0
[INPUT] symmetry False subgroup None
[INPUT] Mole.unit = angstrom
[INPUT] Symbol           X                Y                Z      unit          X                Y                Z       unit  Magmom
[INPUT]  1 H      0.000000000000   0.000000000000  -0.550000000000 AA    0.000000000000   0.000000000000  -1.039349368511 Bohr   0.0
[INPUT]  2 He     0.000000000000   0.000000000000   0.000000000000 AA    0.000000000000   0.000000000000   0.000000000000 Bohr   0.0
[INPUT]  3 H      0.000000000000   0.000000000000   0.550000000000 AA    0.000000000000   0.000000000000   1.039349368511 Bohr   0.0

nuclear repulsion = 4.32963172570909
number of shells = 9
number of NR pGTOs = 21
number of NR cGTOs = 15
basis = ccpvdz
ecp = {}
CPU time:        12.45


******** <class 'pyscf.scf.hf.RHF'> ********
method = RHF
initial guess = minao
damping factor = 0
level_shift factor = 0
DIIS = <class 'pyscf.scf.diis.CDIIS'>
diis_start_cycle = 1
diis_space = 8
diis_damp = 0
SCF conv_tol = 1e-09
SCF conv_tol_grad = None
SCF max_cycles = 50
direct_scf = True
direct_scf_tol = 1e-13
chkfile to save SCF result = /scratch/local/jobs/33497194/tmpw6_subh8
max_memory 40000 MB (current use 147 MB)
Set gradient conv threshold to 3.16228e-05
Initial guess from minao.
init E= -4.37678142061932
  HOMO = -0.0311564292569268  LUMO = 0.148567360013941
cycle= 1 E= -3.22178249594758  delta_E= 1.15  |g|= 0.404  |ddm|= 3.51
  HOMO = -0.337975306257041  LUMO = 0.12602114659104
cycle= 2 E= -3.2634446998166  delta_E= -0.0417  |g|= 0.0403  |ddm|= 0.956
  HOMO = -0.296776652639982  LUMO = 0.150698159403524
cycle= 3 E= -3.26371776006865  delta_E= -0.000273  |g|= 0.0055  |ddm|= 0.0469
  HOMO = -0.296309253874181  LUMO = 0.150664450849315
cycle= 4 E= -3.26372556397816  delta_E= -7.8e-06  |g|= 0.000437  |ddm|= 0.00739
  HOMO = -0.296468783868162  LUMO = 0.150466778370734
cycle= 5 E= -3.26372563569151  delta_E= -7.17e-08  |g|= 5.88e-05  |ddm|= 0.0015
  HOMO = -0.29648570524549  LUMO = 0.150449663500058
cycle= 6 E= -3.26372563705402  delta_E= -1.36e-09  |g|= 1.76e-06  |ddm|= 0.000235
  HOMO = -0.296484773071871  LUMO = 0.150449174505284
cycle= 7 E= -3.26372563705501  delta_E= -9.97e-13  |g|= 1.9e-07  |ddm|= 4.76e-06
  HOMO = -0.296484820637319  LUMO = 0.150449271649064
Extra cycle  E= -3.26372563705502  delta_E= -1.07e-14  |g|= 1.94e-08  |ddm|= 5.36e-07
converged SCF energy = -3.26372563705502

******** AVAS flags ********
aolabels = ['H 1s']
ncore = 0
minao = ccpvdz
threshold = 0.2
with_iao = False
openshell_option = 2
canonicalize = True

** AVAS **
  Total number of HF MOs  is equal to    15
  Number of occupied HF MOs is equal to  2
reference AO indices for ccpvdz ['H 1s']:
 [ 0 10]
Option 2: threshold 0.2
Active from occupied = 2 , eig [0.7523398  0.84785014]
Inactive from occupied = 0
Active from unoccupied = 1 , eig [0.2476602]
Inactive from unoccupied = 12
Dimensions of active 3
# of alpha electrons 2
# of beta electrons 2
Distance = 0.55

******** <class 'pyscf.mcscf.addons.StateAverageCASSCF'> ********
CAS (1e+1e, 2o), ncore = 1, nvir = 12
max_cycle_macro = 50
max_cycle_micro = 4
conv_tol = 1e-07
conv_tol_grad = None
orbital rotation max_stepsize = 0.02
orbital rotation threshold for CI restart = 0.01
augmented hessian ah_max_cycle = 30
augmented hessian ah_conv_tol = 1e-12
augmented hessian ah_linear dependence = 1e-14
augmented hessian ah_level shift = 1e-08
augmented hessian ah_start_tol = 2.5
augmented hessian ah_start_cycle = 3
augmented hessian ah_grad_trust_region = 3
kf_trust_region = 3
kf_interval = 4
ci_response_space = 4
ci_grad_trust_region = 3
with_dep4 0
natorb = False
canonicalization = True
sorting_mo_energy = False
ao2mo_level = 2
chkfile = /scratch/local/jobs/33497194/tmpw6_subh8
max_memory 40000 MB (current use 150 MB)
internal_rotation = False
******** <class 'pyscf.mcscf.addons.StateAverageMixFCISolver'> ********
max. cycles = 100
conv_tol = 1e-10
davidson only = False
linear dependence = 1e-14
level shift = 0.001
max iter space = 12
max_memory 40000 MB
nroots = 4
pspace_size = 200
spin = None
State-average over 4 states with weights [0.25 0.25 0.25 0.25]
CASCI E = -2.28307305273714  S^2 = 0.5000000
Set conv_tol_grad to 0.000316228
macro iter   1 ( 18 JK    4 micro), CASSCF E = -2.57220856177937  dE = -2.89135509e-01  S^2 = 0.5000000
               |grad[o]|=0.984  |ddm|=1.14e-27  |maxRot[o]|=0.257
macro iter   2 ( 21 JK    4 micro), CASSCF E = -2.89581825254163  dE = -3.23609691e-01  S^2 = 0.5000000
               |grad[o]|=0.892  |ddm|=2.22e-16  |maxRot[o]|=0.314
macro iter   3 ( 21 JK    4 micro), CASSCF E = -3.07752048985228  dE = -1.81702237e-01  S^2 = 0.5000000
               |grad[o]|=0.625  |ddm|=3.14e-16  |maxRot[o]|=0.314
macro iter   4 (  9 JK    3 micro), CASSCF E = -3.08566677224289  dE = -8.14628239e-03  S^2 = 0.5000000
               |grad[o]|= 0.15  |ddm|=3.14e-16  |maxRot[o]|=0.0649
macro iter   5 (  5 JK    2 micro), CASSCF E = -3.08566911732808  dE = -2.34508520e-06  S^2 = 0.5000000
               |grad[o]|=0.00171  |ddm|=3.14e-16  |maxRot[o]|=0.00131
macro iter   6 (  1 JK    1 micro), CASSCF E = -3.08566911732808  dE =  4.44089210e-16  S^2 = 0.5000000
               |grad[o]|=1.2e-05  |ddm|=2.22e-16  |maxRot[o]|=    0
1-step CASSCF converged in   6 macro ( 75 JK  18 micro) steps
CASSCF canonicalization
Density matrix diagonal elements [1. 1.]
CASSCF energy = -3.08566911732808
CASCI E = -3.08566911732808  E(CI) = -0.902396266864371  S^2 = 0.5000000
CASCI state-averaged energy = -3.08566911732808
CASCI energy for each state
  State 0 weight 0.25  E = -3.26335283550764 S^2 = 0.0000000
  State 1 weight 0.25  E = -3.06388018005781 S^2 = 0.0000000
  State 2 weight 0.25  E = -2.84889426251859 S^2 = 0.0000000
  State 3 weight 0.25  E = -3.16654919122829 S^2 = 2.0000000
#INFO: **** input file is /project/lgagliardi/jtejada/examples/LASPrep/HeH2/HeH2.py ****
from pyscf import gto, scf, mcscf
from pyscf.mcscf import avas
from pyscf.csf_fci import csf_solver
from pyscf.csf_fci.csfstring import count_all_csfs
import numpy as np
import matplotlib.pyplot as plt
from pyscf.tools import molden

def run(b):


    mol = gto.M(
        atom = f'H 0 0 {-b}; He 0 0 0; H 0 0 {b}',
        basis = 'ccpvdz',
        charge = 0,
        spin = 0,
        verbose = 4,
        max_memory = 40000
    )

    ncas = 2     # Number of active orbitals
    nelecas = 2   # Number of active electrons
    mf = scf.RHF(mol).run()

    #Set up solvers for singlet
    solvers = csf_solver(mol, smult=1)
    solvers.nroots = 3

    solverstri = csf_solver(mol, smult=3)
    solverstri.nroots = 1

    # Weights
    weights = np.ones(solvers.nroots+ solverstri.nroots) / (solvers.nroots+ solverstri.nroots)
    mo_coeff = avas.kernel(mf, ['H 1s'],minao=mol.basis)[2]

    #Run CASSCF
    sing = mcscf.CASSCF(mf, ncas, nelecas)
    sing = mcscf.state_average_mix_(sing, [solvers,solverstri], weights)
    print(f'Distance = {b}')
    sing.kernel(mo_coeff)
    sing_e = sing.e_states

    return sing_e

x = [i/20 for i in range(10, 61, 1)]


for b in x:
    sing = (run(b))#INFO: ******************** input file end ********************


System: uname_result(system='Linux', node='midway3-0075.rcc.local', release='4.18.0-305.3.1.el8.x86_64', version='#1 SMP Tue Jun 1 16:14:33 UTC 2021', machine='x86_64')  Threads 4
Python 3.11.5 (main, Nov 30 2024, 03:04:01) [GCC 13.2.0]
numpy 2.3.1  scipy 1.16.0  h5py 3.14.0
Date: Thu Jul 24 10:30:38 2025
PySCF version 2.9.0
PySCF path  /home/jtejada/summerRotation/lib/python3.11/site-packages/pyscf

[CONFIG] conf_file None
[INPUT] verbose = 4
[INPUT] num. atoms = 3
[INPUT] num. electrons = 4
[INPUT] charge = 0
[INPUT] spin (= nelec alpha-beta = 2S) = 0
[INPUT] symmetry False subgroup None
[INPUT] Mole.unit = angstrom
[INPUT] Symbol           X                Y                Z      unit          X                Y                Z       unit  Magmom
[INPUT]  1 H      0.000000000000   0.000000000000  -0.600000000000 AA    0.000000000000   0.000000000000  -1.133835674739 Bohr   0.0
[INPUT]  2 He     0.000000000000   0.000000000000   0.000000000000 AA    0.000000000000   0.000000000000   0.000000000000 Bohr   0.0
[INPUT]  3 H      0.000000000000   0.000000000000   0.600000000000 AA    0.000000000000   0.000000000000   1.133835674739 Bohr   0.0

nuclear repulsion = 3.9688290819
number of shells = 9
number of NR pGTOs = 21
number of NR cGTOs = 15
basis = ccpvdz
ecp = {}
CPU time:        22.59


******** <class 'pyscf.scf.hf.RHF'> ********
method = RHF
initial guess = minao
damping factor = 0
level_shift factor = 0
DIIS = <class 'pyscf.scf.diis.CDIIS'>
diis_start_cycle = 1
diis_space = 8
diis_damp = 0
SCF conv_tol = 1e-09
SCF conv_tol_grad = None
SCF max_cycles = 50
direct_scf = True
direct_scf_tol = 1e-13
chkfile to save SCF result = /scratch/local/jobs/33497194/tmpg6px5oj9
max_memory 40000 MB (current use 150 MB)
Set gradient conv threshold to 3.16228e-05
Initial guess from minao.
init E= -4.32830217784651
  HOMO = -0.0517773741862608  LUMO = 0.146620752613783
cycle= 1 E= -3.35032567907052  delta_E= 0.978  |g|= 0.37  |ddm|= 2.94
  HOMO = -0.342986985438554  LUMO = 0.127147470716535
cycle= 2 E= -3.3860461984517  delta_E= -0.0357  |g|= 0.0358  |ddm|= 0.739
  HOMO = -0.305566696834908  LUMO = 0.150198649511073
cycle= 3 E= -3.38627000040446  delta_E= -0.000224  |g|= 0.00497  |ddm|= 0.0355
  HOMO = -0.305004317243645  LUMO = 0.150289697440776
cycle= 4 E= -3.38627644909066  delta_E= -6.45e-06  |g|= 0.00033  |ddm|= 0.00581
  HOMO = -0.30512817413168  LUMO = 0.150136347214112
cycle= 5 E= -3.3862764904501  delta_E= -4.14e-08  |g|= 4.64e-05  |ddm|= 0.000992
  HOMO = -0.305141880817303  LUMO = 0.150121877269326
cycle= 6 E= -3.38627649135192  delta_E= -9.02e-10  |g|= 1.66e-06  |ddm|= 0.000168
  HOMO = -0.305141320816767  LUMO = 0.150121390758464
Extra cycle  E= -3.38627649135281  delta_E= -8.96e-13  |g|= 2.81e-07  |ddm|= 2.8e-06
converged SCF energy = -3.38627649135281

******** AVAS flags ********
aolabels = ['H 1s']
ncore = 0
minao = ccpvdz
threshold = 0.2
with_iao = False
openshell_option = 2
canonicalize = True

** AVAS **
  Total number of HF MOs  is equal to    15
  Number of occupied HF MOs is equal to  2
reference AO indices for ccpvdz ['H 1s']:
 [ 0 10]
Option 2: threshold 0.2
Active from occupied = 2 , eig [0.72601274 0.85590631]
Inactive from occupied = 0
Active from unoccupied = 1 , eig [0.27398726]
Inactive from unoccupied = 12
Dimensions of active 3
# of alpha electrons 2
# of beta electrons 2
Distance = 0.6

******** <class 'pyscf.mcscf.addons.StateAverageCASSCF'> ********
CAS (1e+1e, 2o), ncore = 1, nvir = 12
max_cycle_macro = 50
max_cycle_micro = 4
conv_tol = 1e-07
conv_tol_grad = None
orbital rotation max_stepsize = 0.02
orbital rotation threshold for CI restart = 0.01
augmented hessian ah_max_cycle = 30
augmented hessian ah_conv_tol = 1e-12
augmented hessian ah_linear dependence = 1e-14
augmented hessian ah_level shift = 1e-08
augmented hessian ah_start_tol = 2.5
augmented hessian ah_start_cycle = 3
augmented hessian ah_grad_trust_region = 3
kf_trust_region = 3
kf_interval = 4
ci_response_space = 4
ci_grad_trust_region = 3
with_dep4 0
natorb = False
canonicalization = True
sorting_mo_energy = False
ao2mo_level = 2
chkfile = /scratch/local/jobs/33497194/tmpg6px5oj9
max_memory 40000 MB (current use 150 MB)
internal_rotation = False
******** <class 'pyscf.mcscf.addons.StateAverageMixFCISolver'> ********
max. cycles = 100
conv_tol = 1e-10
davidson only = False
linear dependence = 1e-14
level shift = 0.001
max iter space = 12
max_memory 40000 MB
nroots = 4
pspace_size = 200
spin = None
State-average over 4 states with weights [0.25 0.25 0.25 0.25]
CASCI E = -2.48646743539098  S^2 = 0.5000000
Set conv_tol_grad to 0.000316228
macro iter   1 ( 18 JK    4 micro), CASSCF E = -2.74609319873719  dE = -2.59625763e-01  S^2 = 0.5000000
               |grad[o]|=0.849  |ddm|=3.15e-16  |maxRot[o]|=0.257
macro iter   2 ( 21 JK    4 micro), CASSCF E = -3.03516251026542  dE = -2.89069312e-01  S^2 = 0.5000000
               |grad[o]|=0.774  |ddm|=3.14e-16  |maxRot[o]|=0.314
macro iter   3 ( 21 JK    4 micro), CASSCF E = -3.19252101102429  dE = -1.57358501e-01  S^2 = 0.5000000
               |grad[o]|=0.539  |ddm|=5.03e-26  |maxRot[o]|=0.314
macro iter   4 (  9 JK    3 micro), CASSCF E = -3.19848395742750  dE = -5.96294640e-03  S^2 = 0.5000000
               |grad[o]|=0.119  |ddm|=3.66e-26  |maxRot[o]|=0.0605
macro iter   5 (  5 JK    2 micro), CASSCF E = -3.19848565672757  dE = -1.69930007e-06  S^2 = 0.5000000
               |grad[o]|=0.00139  |ddm|=2.22e-16  |maxRot[o]|=0.00117
macro iter   6 (  1 JK    1 micro), CASSCF E = -3.19848565672757  dE =  0.00000000e+00  S^2 = 0.5000000
               |grad[o]|=1.23e-05  |ddm|=1.1e-25  |maxRot[o]|=    0
1-step CASSCF converged in   6 macro ( 75 JK  18 micro) steps
CASSCF canonicalization
Density matrix diagonal elements [1. 1.]
CASSCF energy = -3.19848565672757
CASCI E = -3.19848565672757  E(CI) = -0.907907925192293  S^2 = 0.5000000
CASCI state-averaged energy = -3.19848565672757
CASCI energy for each state
  State 0 weight 0.25  E = -3.3869668945905 S^2 = 0.0000000
  State 1 weight 0.25  E = -3.1722528974456 S^2 = 0.0000000
  State 2 weight 0.25  E = -2.95363038395258 S^2 = 0.0000000
  State 3 weight 0.25  E = -3.2810924509216 S^2 = 2.0000000
#INFO: **** input file is /project/lgagliardi/jtejada/examples/LASPrep/HeH2/HeH2.py ****
from pyscf import gto, scf, mcscf
from pyscf.mcscf import avas
from pyscf.csf_fci import csf_solver
from pyscf.csf_fci.csfstring import count_all_csfs
import numpy as np
import matplotlib.pyplot as plt
from pyscf.tools import molden

def run(b):


    mol = gto.M(
        atom = f'H 0 0 {-b}; He 0 0 0; H 0 0 {b}',
        basis = 'ccpvdz',
        charge = 0,
        spin = 0,
        verbose = 4,
        max_memory = 40000
    )

    ncas = 2     # Number of active orbitals
    nelecas = 2   # Number of active electrons
    mf = scf.RHF(mol).run()

    #Set up solvers for singlet
    solvers = csf_solver(mol, smult=1)
    solvers.nroots = 3

    solverstri = csf_solver(mol, smult=3)
    solverstri.nroots = 1

    # Weights
    weights = np.ones(solvers.nroots+ solverstri.nroots) / (solvers.nroots+ solverstri.nroots)
    mo_coeff = avas.kernel(mf, ['H 1s'],minao=mol.basis)[2]

    #Run CASSCF
    sing = mcscf.CASSCF(mf, ncas, nelecas)
    sing = mcscf.state_average_mix_(sing, [solvers,solverstri], weights)
    print(f'Distance = {b}')
    sing.kernel(mo_coeff)
    sing_e = sing.e_states

    return sing_e

x = [i/20 for i in range(10, 61, 1)]


for b in x:
    sing = (run(b))#INFO: ******************** input file end ********************


System: uname_result(system='Linux', node='midway3-0075.rcc.local', release='4.18.0-305.3.1.el8.x86_64', version='#1 SMP Tue Jun 1 16:14:33 UTC 2021', machine='x86_64')  Threads 4
Python 3.11.5 (main, Nov 30 2024, 03:04:01) [GCC 13.2.0]
numpy 2.3.1  scipy 1.16.0  h5py 3.14.0
Date: Thu Jul 24 10:30:40 2025
PySCF version 2.9.0
PySCF path  /home/jtejada/summerRotation/lib/python3.11/site-packages/pyscf

[CONFIG] conf_file None
[INPUT] verbose = 4
[INPUT] num. atoms = 3
[INPUT] num. electrons = 4
[INPUT] charge = 0
[INPUT] spin (= nelec alpha-beta = 2S) = 0
[INPUT] symmetry False subgroup None
[INPUT] Mole.unit = angstrom
[INPUT] Symbol           X                Y                Z      unit          X                Y                Z       unit  Magmom
[INPUT]  1 H      0.000000000000   0.000000000000  -0.650000000000 AA    0.000000000000   0.000000000000  -1.228321980967 Bohr   0.0
[INPUT]  2 He     0.000000000000   0.000000000000   0.000000000000 AA    0.000000000000   0.000000000000   0.000000000000 Bohr   0.0
[INPUT]  3 H      0.000000000000   0.000000000000   0.650000000000 AA    0.000000000000   0.000000000000   1.228321980967 Bohr   0.0

nuclear repulsion = 3.66353453713846
number of shells = 9
number of NR pGTOs = 21
number of NR cGTOs = 15
basis = ccpvdz
ecp = {}
CPU time:        32.83


******** <class 'pyscf.scf.hf.RHF'> ********
method = RHF
initial guess = minao
damping factor = 0
level_shift factor = 0
DIIS = <class 'pyscf.scf.diis.CDIIS'>
diis_start_cycle = 1
diis_space = 8
diis_damp = 0
SCF conv_tol = 1e-09
SCF conv_tol_grad = None
SCF max_cycles = 50
direct_scf = True
direct_scf_tol = 1e-13
chkfile to save SCF result = /scratch/local/jobs/33497194/tmpox_ocyje
max_memory 40000 MB (current use 150 MB)
Set gradient conv threshold to 3.16228e-05
Initial guess from minao.
init E= -4.26521523269955
  HOMO = -0.0699026817086507  LUMO = 0.141885413800385
cycle= 1 E= -3.44394922928834  delta_E= 0.821  |g|= 0.341  |ddm|= 2.53
  HOMO = -0.345998383773312  LUMO = 0.125325401100064
cycle= 2 E= -3.47485697847547  delta_E= -0.0309  |g|= 0.032  |ddm|= 0.586
  HOMO = -0.312186516453909  LUMO = 0.147142912395486
cycle= 3 E= -3.47504258151  delta_E= -0.000186  |g|= 0.00451  |ddm|= 0.028
  HOMO = -0.311574488786154  LUMO = 0.147332025214602
cycle= 4 E= -3.47504801068579  delta_E= -5.43e-06  |g|= 0.000253  |ddm|= 0.00479
  HOMO = -0.311672577748027  LUMO = 0.14721136817509
cycle= 5 E= -3.47504803422213  delta_E= -2.35e-08  |g|= 3.37e-05  |ddm|= 0.000667
  HOMO = -0.311683068434285  LUMO = 0.147200318437655
cycle= 6 E= -3.47504803472028  delta_E= -4.98e-10  |g|= 1.58e-06  |ddm|= 0.000113
  HOMO = -0.311682632758862  LUMO = 0.147199823215813
Extra cycle  E= -3.47504803472112  delta_E= -8.34e-13  |g|= 3.05e-07  |ddm|= 1.81e-06
converged SCF energy = -3.47504803472112

******** AVAS flags ********
aolabels = ['H 1s']
ncore = 0
minao = ccpvdz
threshold = 0.2
with_iao = False
openshell_option = 2
canonicalize = True

** AVAS **
  Total number of HF MOs  is equal to    15
  Number of occupied HF MOs is equal to  2
reference AO indices for ccpvdz ['H 1s']:
 [ 0 10]
Option 2: threshold 0.2
Active from occupied = 2 , eig [0.69320606 0.86098617]
Inactive from occupied = 0
Active from unoccupied = 1 , eig [0.30679394]
Inactive from unoccupied = 12
Dimensions of active 3
# of alpha electrons 2
# of beta electrons 2
Distance = 0.65

******** <class 'pyscf.mcscf.addons.StateAverageCASSCF'> ********
CAS (1e+1e, 2o), ncore = 1, nvir = 12
max_cycle_macro = 50
max_cycle_micro = 4
conv_tol = 1e-07
conv_tol_grad = None
orbital rotation max_stepsize = 0.02
orbital rotation threshold for CI restart = 0.01
augmented hessian ah_max_cycle = 30
augmented hessian ah_conv_tol = 1e-12
augmented hessian ah_linear dependence = 1e-14
augmented hessian ah_level shift = 1e-08
augmented hessian ah_start_tol = 2.5
augmented hessian ah_start_cycle = 3
augmented hessian ah_grad_trust_region = 3
kf_trust_region = 3
kf_interval = 4
ci_response_space = 4
ci_grad_trust_region = 3
with_dep4 0
natorb = False
canonicalization = True
sorting_mo_energy = False
ao2mo_level = 2
chkfile = /scratch/local/jobs/33497194/tmpox_ocyje
max_memory 40000 MB (current use 150 MB)
internal_rotation = False
******** <class 'pyscf.mcscf.addons.StateAverageMixFCISolver'> ********
max. cycles = 100
conv_tol = 1e-10
davidson only = False
linear dependence = 1e-14
level shift = 0.001
max iter space = 12
max_memory 40000 MB
nroots = 4
pspace_size = 200
spin = None
State-average over 4 states with weights [0.25 0.25 0.25 0.25]
CASCI E = -2.65993009060721  S^2 = 0.5000000
Set conv_tol_grad to 0.000316228
macro iter   1 ( 20 JK    4 micro), CASSCF E = -2.92854860742628  dE = -2.68618517e-01  S^2 = 0.5000000
               |grad[o]|=0.724  |ddm|=1.39e-31  |maxRot[o]|=0.295
macro iter   2 ( 21 JK    4 micro), CASSCF E = -3.17283025178712  dE = -2.44281644e-01  S^2 = 0.5000000
               |grad[o]|=0.643  |ddm|=1.83e-26  |maxRot[o]|=0.315
macro iter   3 ( 20 JK    4 micro), CASSCF E = -3.28106085242836  dE = -1.08230601e-01  S^2 = 0.5000000
               |grad[o]|=0.415  |ddm|=2.22e-16  |maxRot[o]|=0.295
macro iter   4 (  9 JK    4 micro), CASSCF E = -3.28205758628273  dE = -9.96733854e-04  S^2 = 0.5000000
               |grad[o]|=0.0438  |ddm|=2.22e-16  |maxRot[o]|=0.0275
macro iter   5 (  3 JK    1 micro), CASSCF E = -3.28205767352381  dE = -8.72410792e-08  S^2 = 0.5000000
               |grad[o]|=0.000302  |ddm|=2.22e-16  |maxRot[o]|=0.000274
1-step CASSCF converged in   5 macro ( 73 JK  17 micro) steps
CASSCF canonicalization
Density matrix diagonal elements [1. 1.]
CASSCF energy = -3.28205767352381
CASCI E = -3.28205767352381  E(CI) = -0.911989865224687  S^2 = 0.5000000
CASCI state-averaged energy = -3.28205767352381
CASCI energy for each state
  State 0 weight 0.25  E = -3.4774629876647 S^2 = 0.0000000
  State 1 weight 0.25  E = -3.2493425629559 S^2 = 0.0000000
  State 2 weight 0.25  E = -3.03419431636532 S^2 = 0.0000000
  State 3 weight 0.25  E = -3.3672308271093 S^2 = 2.0000000
#INFO: **** input file is /project/lgagliardi/jtejada/examples/LASPrep/HeH2/HeH2.py ****
from pyscf import gto, scf, mcscf
from pyscf.mcscf import avas
from pyscf.csf_fci import csf_solver
from pyscf.csf_fci.csfstring import count_all_csfs
import numpy as np
import matplotlib.pyplot as plt
from pyscf.tools import molden

def run(b):


    mol = gto.M(
        atom = f'H 0 0 {-b}; He 0 0 0; H 0 0 {b}',
        basis = 'ccpvdz',
        charge = 0,
        spin = 0,
        verbose = 4,
        max_memory = 40000
    )

    ncas = 2     # Number of active orbitals
    nelecas = 2   # Number of active electrons
    mf = scf.RHF(mol).run()

    #Set up solvers for singlet
    solvers = csf_solver(mol, smult=1)
    solvers.nroots = 3

    solverstri = csf_solver(mol, smult=3)
    solverstri.nroots = 1

    # Weights
    weights = np.ones(solvers.nroots+ solverstri.nroots) / (solvers.nroots+ solverstri.nroots)
    mo_coeff = avas.kernel(mf, ['H 1s'],minao=mol.basis)[2]

    #Run CASSCF
    sing = mcscf.CASSCF(mf, ncas, nelecas)
    sing = mcscf.state_average_mix_(sing, [solvers,solverstri], weights)
    print(f'Distance = {b}')
    sing.kernel(mo_coeff)
    sing_e = sing.e_states

    return sing_e

x = [i/20 for i in range(10, 61, 1)]


for b in x:
    sing = (run(b))#INFO: ******************** input file end ********************


System: uname_result(system='Linux', node='midway3-0075.rcc.local', release='4.18.0-305.3.1.el8.x86_64', version='#1 SMP Tue Jun 1 16:14:33 UTC 2021', machine='x86_64')  Threads 4
Python 3.11.5 (main, Nov 30 2024, 03:04:01) [GCC 13.2.0]
numpy 2.3.1  scipy 1.16.0  h5py 3.14.0
Date: Thu Jul 24 10:30:43 2025
PySCF version 2.9.0
PySCF path  /home/jtejada/summerRotation/lib/python3.11/site-packages/pyscf

[CONFIG] conf_file None
[INPUT] verbose = 4
[INPUT] num. atoms = 3
[INPUT] num. electrons = 4
[INPUT] charge = 0
[INPUT] spin (= nelec alpha-beta = 2S) = 0
[INPUT] symmetry False subgroup None
[INPUT] Mole.unit = angstrom
[INPUT] Symbol           X                Y                Z      unit          X                Y                Z       unit  Magmom
[INPUT]  1 H      0.000000000000   0.000000000000  -0.700000000000 AA    0.000000000000   0.000000000000  -1.322808287196 Bohr   0.0
[INPUT]  2 He     0.000000000000   0.000000000000   0.000000000000 AA    0.000000000000   0.000000000000   0.000000000000 Bohr   0.0
[INPUT]  3 H      0.000000000000   0.000000000000   0.700000000000 AA    0.000000000000   0.000000000000   1.322808287196 Bohr   0.0

nuclear repulsion = 3.40185349877143
number of shells = 9
number of NR pGTOs = 21
number of NR cGTOs = 15
basis = ccpvdz
ecp = {}
CPU time:        42.50


******** <class 'pyscf.scf.hf.RHF'> ********
method = RHF
initial guess = minao
damping factor = 0
level_shift factor = 0
DIIS = <class 'pyscf.scf.diis.CDIIS'>
diis_start_cycle = 1
diis_space = 8
diis_damp = 0
SCF conv_tol = 1e-09
SCF conv_tol_grad = None
SCF max_cycles = 50
direct_scf = True
direct_scf_tol = 1e-13
chkfile to save SCF result = /scratch/local/jobs/33497194/tmp3l4wnk2p
max_memory 40000 MB (current use 150 MB)
Set gradient conv threshold to 3.16228e-05
Initial guess from minao.
init E= -4.19594876144273
  HOMO = -0.0857311635457782  LUMO = 0.134310362625964
cycle= 1 E= -3.51198283533049  delta_E= 0.684  |g|= 0.315  |ddm|= 2.23
  HOMO = -0.347371278264358  LUMO = 0.120774030940876
cycle= 2 E= -3.5389065473082  delta_E= -0.0269  |g|= 0.0286  |ddm|= 0.474
  HOMO = -0.316969468902655  LUMO = 0.141619671713972
cycle= 3 E= -3.5390622150447  delta_E= -0.000156  |g|= 0.00412  |ddm|= 0.0229
  HOMO = -0.316340052660108  LUMO = 0.14188811374089
cycle= 4 E= -3.5390668524699  delta_E= -4.64e-06  |g|= 0.000199  |ddm|= 0.00413
  HOMO = -0.316419338304696  LUMO = 0.141791842951709
cycle= 5 E= -3.5390668660384  delta_E= -1.36e-08  |g|= 2.27e-05  |ddm|= 0.000458
  HOMO = -0.316427016960662  LUMO = 0.141784250385483
cycle= 6 E= -3.539066866268  delta_E= -2.3e-10  |g|= 1.46e-06  |ddm|= 7.04e-05
  HOMO = -0.316426722482155  LUMO = 0.141783744499126
Extra cycle  E= -3.53906686626877  delta_E= -7.64e-13  |g|= 3.23e-07  |ddm|= 1.32e-06
converged SCF energy = -3.53906686626877

******** AVAS flags ********
aolabels = ['H 1s']
ncore = 0
minao = ccpvdz
threshold = 0.2
with_iao = False
openshell_option = 2
canonicalize = True

** AVAS **
  Total number of HF MOs  is equal to    15
  Number of occupied HF MOs is equal to  2
reference AO indices for ccpvdz ['H 1s']:
 [ 0 10]
Option 2: threshold 0.2
Active from occupied = 2 , eig [0.65488948 0.86381301]
Inactive from occupied = 0
Active from unoccupied = 1 , eig [0.34511052]
Inactive from unoccupied = 12
Dimensions of active 3
# of alpha electrons 2
# of beta electrons 2
Distance = 0.7

******** <class 'pyscf.mcscf.addons.StateAverageCASSCF'> ********
CAS (1e+1e, 2o), ncore = 1, nvir = 12
max_cycle_macro = 50
max_cycle_micro = 4
conv_tol = 1e-07
conv_tol_grad = None
orbital rotation max_stepsize = 0.02
orbital rotation threshold for CI restart = 0.01
augmented hessian ah_max_cycle = 30
augmented hessian ah_conv_tol = 1e-12
augmented hessian ah_linear dependence = 1e-14
augmented hessian ah_level shift = 1e-08
augmented hessian ah_start_tol = 2.5
augmented hessian ah_start_cycle = 3
augmented hessian ah_grad_trust_region = 3
kf_trust_region = 3
kf_interval = 4
ci_response_space = 4
ci_grad_trust_region = 3
with_dep4 0
natorb = False
canonicalization = True
sorting_mo_energy = False
ao2mo_level = 2
chkfile = /scratch/local/jobs/33497194/tmp3l4wnk2p
max_memory 40000 MB (current use 150 MB)
internal_rotation = False
******** <class 'pyscf.mcscf.addons.StateAverageMixFCISolver'> ********
max. cycles = 100
conv_tol = 1e-10
davidson only = False
linear dependence = 1e-14
level shift = 0.001
max iter space = 12
max_memory 40000 MB
nroots = 4
pspace_size = 200
spin = None
State-average over 4 states with weights [0.25 0.25 0.25 0.25]
CASCI E = -2.80580956544062  S^2 = 0.5000000
Set conv_tol_grad to 0.000316228
macro iter   1 ( 19 JK    4 micro), CASSCF E = -3.03157108576824  dE = -2.25761520e-01  S^2 = 0.5000000
               |grad[o]|=0.615  |ddm|=2.22e-16  |maxRot[o]|=0.276
macro iter   2 ( 21 JK    4 micro), CASSCF E = -3.25021655102375  dE = -2.18645465e-01  S^2 = 0.5000000
               |grad[o]|=0.553  |ddm|=1.83e-26  |maxRot[o]|=0.315
macro iter   3 ( 20 JK    4 micro), CASSCF E = -3.34424408155646  dE = -9.40275305e-02  S^2 = 0.5000000
               |grad[o]|=0.355  |ddm|=2.22e-16  |maxRot[o]|=0.295
macro iter   4 (  7 JK    3 micro), CASSCF E = -3.34494422321722  dE = -7.00141661e-04  S^2 = 0.5000000
               |grad[o]|=0.0335  |ddm|=3.14e-16  |maxRot[o]|=0.025
macro iter   5 (  3 JK    1 micro), CASSCF E = -3.34494427960002  dE = -5.63827913e-08  S^2 = 0.5000000
               |grad[o]|=0.00024  |ddm|=2.22e-16  |maxRot[o]|=0.000225
1-step CASSCF converged in   5 macro ( 70 JK  16 micro) steps
CASSCF canonicalization
Density matrix diagonal elements [1. 1.]
CASSCF energy = -3.34494427960002
CASCI E = -3.34494427960002  E(CI) = -0.915354533869534  S^2 = 0.5000000
CASCI state-averaged energy = -3.34494427960002
CASCI energy for each state
  State 0 weight 0.25  E = -3.54389362034743 S^2 = 0.0000000
  State 1 weight 0.25  E = -3.30390976462809 S^2 = 0.0000000
  State 2 weight 0.25  E = -3.09827779719378 S^2 = 0.0000000
  State 3 weight 0.25  E = -3.43369593623077 S^2 = 2.0000000
#INFO: **** input file is /project/lgagliardi/jtejada/examples/LASPrep/HeH2/HeH2.py ****
from pyscf import gto, scf, mcscf
from pyscf.mcscf import avas
from pyscf.csf_fci import csf_solver
from pyscf.csf_fci.csfstring import count_all_csfs
import numpy as np
import matplotlib.pyplot as plt
from pyscf.tools import molden

def run(b):


    mol = gto.M(
        atom = f'H 0 0 {-b}; He 0 0 0; H 0 0 {b}',
        basis = 'ccpvdz',
        charge = 0,
        spin = 0,
        verbose = 4,
        max_memory = 40000
    )

    ncas = 2     # Number of active orbitals
    nelecas = 2   # Number of active electrons
    mf = scf.RHF(mol).run()

    #Set up solvers for singlet
    solvers = csf_solver(mol, smult=1)
    solvers.nroots = 3

    solverstri = csf_solver(mol, smult=3)
    solverstri.nroots = 1

    # Weights
    weights = np.ones(solvers.nroots+ solverstri.nroots) / (solvers.nroots+ solverstri.nroots)
    mo_coeff = avas.kernel(mf, ['H 1s'],minao=mol.basis)[2]

    #Run CASSCF
    sing = mcscf.CASSCF(mf, ncas, nelecas)
    sing = mcscf.state_average_mix_(sing, [solvers,solverstri], weights)
    print(f'Distance = {b}')
    sing.kernel(mo_coeff)
    sing_e = sing.e_states

    return sing_e

x = [i/20 for i in range(10, 61, 1)]


for b in x:
    sing = (run(b))#INFO: ******************** input file end ********************


System: uname_result(system='Linux', node='midway3-0075.rcc.local', release='4.18.0-305.3.1.el8.x86_64', version='#1 SMP Tue Jun 1 16:14:33 UTC 2021', machine='x86_64')  Threads 4
Python 3.11.5 (main, Nov 30 2024, 03:04:01) [GCC 13.2.0]
numpy 2.3.1  scipy 1.16.0  h5py 3.14.0
Date: Thu Jul 24 10:30:46 2025
PySCF version 2.9.0
PySCF path  /home/jtejada/summerRotation/lib/python3.11/site-packages/pyscf

[CONFIG] conf_file None
[INPUT] verbose = 4
[INPUT] num. atoms = 3
[INPUT] num. electrons = 4
[INPUT] charge = 0
[INPUT] spin (= nelec alpha-beta = 2S) = 0
[INPUT] symmetry False subgroup None
[INPUT] Mole.unit = angstrom
[INPUT] Symbol           X                Y                Z      unit          X                Y                Z       unit  Magmom
[INPUT]  1 H      0.000000000000   0.000000000000  -0.750000000000 AA    0.000000000000   0.000000000000  -1.417294593424 Bohr   0.0
[INPUT]  2 He     0.000000000000   0.000000000000   0.000000000000 AA    0.000000000000   0.000000000000   0.000000000000 Bohr   0.0
[INPUT]  3 H      0.000000000000   0.000000000000   0.750000000000 AA    0.000000000000   0.000000000000   1.417294593424 Bohr   0.0

nuclear repulsion = 3.17506326552
number of shells = 9
number of NR pGTOs = 21
number of NR cGTOs = 15
basis = ccpvdz
ecp = {}
CPU time:        51.91


******** <class 'pyscf.scf.hf.RHF'> ********
method = RHF
initial guess = minao
damping factor = 0
level_shift factor = 0
DIIS = <class 'pyscf.scf.diis.CDIIS'>
diis_start_cycle = 1
diis_space = 8
diis_damp = 0
SCF conv_tol = 1e-09
SCF conv_tol_grad = None
SCF max_cycles = 50
direct_scf = True
direct_scf_tol = 1e-13
chkfile to save SCF result = /scratch/local/jobs/33497194/tmpepbcalxc
max_memory 40000 MB (current use 150 MB)
Set gradient conv threshold to 3.16228e-05
Initial guess from minao.
init E= -4.12571913096265
  HOMO = -0.0994894548938971  LUMO = 0.123884402125369
cycle= 1 E= -3.56115087955256  delta_E= 0.565  |g|= 0.293  |ddm|=    2
  HOMO = -0.347405050424161  LUMO = 0.113693617678718
cycle= 2 E= -3.58470320098979  delta_E= -0.0236  |g|= 0.0258  |ddm|= 0.39
  HOMO = -0.320212692394303  LUMO = 0.133693520272269
cycle= 3 E= -3.58483479794562  delta_E= -0.000132  |g|= 0.00378  |ddm|= 0.0196
  HOMO = -0.31958918645292  LUMO = 0.134024271891361
cycle= 4 E= -3.58483879524884  delta_E= -4e-06  |g|= 0.000164  |ddm|= 0.0037
  HOMO = -0.319654438603372  LUMO = 0.133946329511505
cycle= 5 E= -3.5848388035611  delta_E= -8.31e-09  |g|= 1.45e-05  |ddm|= 0.000324
  HOMO = -0.31965990589109  LUMO = 0.133941668526942
cycle= 6 E= -3.5848388036512  delta_E= -9.01e-11  |g|= 1.22e-06  |ddm|= 4.15e-05
  HOMO = -0.319659750450189  LUMO = 0.133941189750391
Extra cycle  E= -3.58483880365177  delta_E= -5.73e-13  |g|= 2.96e-07  |ddm|= 1.12e-06
converged SCF energy = -3.58483880365177

******** AVAS flags ********
aolabels = ['H 1s']
ncore = 0
minao = ccpvdz
threshold = 0.2
with_iao = False
openshell_option = 2
canonicalize = True

** AVAS **
  Total number of HF MOs  is equal to    15
  Number of occupied HF MOs is equal to  2
reference AO indices for ccpvdz ['H 1s']:
 [ 0 10]
Option 2: threshold 0.2
Active from occupied = 2 , eig [0.61212094 0.86488681]
Inactive from occupied = 0
Active from unoccupied = 1 , eig [0.38787906]
Inactive from unoccupied = 12
Dimensions of active 3
# of alpha electrons 2
# of beta electrons 2
Distance = 0.75

******** <class 'pyscf.mcscf.addons.StateAverageCASSCF'> ********
CAS (1e+1e, 2o), ncore = 1, nvir = 12
max_cycle_macro = 50
max_cycle_micro = 4
conv_tol = 1e-07
conv_tol_grad = None
orbital rotation max_stepsize = 0.02
orbital rotation threshold for CI restart = 0.01
augmented hessian ah_max_cycle = 30
augmented hessian ah_conv_tol = 1e-12
augmented hessian ah_linear dependence = 1e-14
augmented hessian ah_level shift = 1e-08
augmented hessian ah_start_tol = 2.5
augmented hessian ah_start_cycle = 3
augmented hessian ah_grad_trust_region = 3
kf_trust_region = 3
kf_interval = 4
ci_response_space = 4
ci_grad_trust_region = 3
with_dep4 0
natorb = False
canonicalization = True
sorting_mo_energy = False
ao2mo_level = 2
chkfile = /scratch/local/jobs/33497194/tmpepbcalxc
max_memory 40000 MB (current use 150 MB)
internal_rotation = False
******** <class 'pyscf.mcscf.addons.StateAverageMixFCISolver'> ********
max. cycles = 100
conv_tol = 1e-10
davidson only = False
linear dependence = 1e-14
level shift = 0.001
max iter space = 12
max_memory 40000 MB
nroots = 4
pspace_size = 200
spin = None
State-average over 4 states with weights [0.25 0.25 0.25 0.25]
CASCI E = -2.92728262130854  S^2 = 0.5000000
Set conv_tol_grad to 0.000316228
macro iter   1 ( 19 JK    4 micro), CASSCF E = -3.13204499523532  dE = -2.04762374e-01  S^2 = 0.5000000
               |grad[o]|=0.524  |ddm|=2.22e-16  |maxRot[o]|=0.276
macro iter   2 ( 21 JK    4 micro), CASSCF E = -3.32259098738313  dE = -1.90545992e-01  S^2 = 0.5000000
               |grad[o]|=0.469  |ddm|=1.37e-26  |maxRot[o]|=0.315
macro iter   3 ( 19 JK    4 micro), CASSCF E = -3.39297575834438  dE = -7.03847710e-02  S^2 = 0.5000000
               |grad[o]|=0.285  |ddm|=3.14e-16  |maxRot[o]|=0.276
macro iter   4 (  7 JK    3 micro), CASSCF E = -3.39317960831351  dE = -2.03849969e-04  S^2 = 0.5000000
               |grad[o]|=0.0139  |ddm|=2.22e-16  |maxRot[o]|=0.0152
macro iter   5 (  3 JK    1 micro), CASSCF E = -3.39317961688347  dE = -8.56995452e-09  S^2 = 0.5000000
               |grad[o]|=8.46e-05  |ddm|=3.14e-16  |maxRot[o]|=9.36e-05
1-step CASSCF converged in   5 macro ( 69 JK  16 micro) steps
CASSCF canonicalization
Density matrix diagonal elements [1. 1.]
CASSCF energy = -3.39317961688347
CASCI E = -3.39317961688347  E(CI) = -0.918469270437588  S^2 = 0.5000000
CASCI state-averaged energy = -3.39317961688347
CASCI energy for each state
  State 0 weight 0.25  E = -3.59285047335019 S^2 = 0.0000000
  State 1 weight 0.25  E = -3.34225432539782 S^2 = 0.0000000
  State 2 weight 0.25  E = -3.15100747420329 S^2 = 0.0000000
  State 3 weight 0.25  E = -3.48660619458258 S^2 = 2.0000000
#INFO: **** input file is /project/lgagliardi/jtejada/examples/LASPrep/HeH2/HeH2.py ****
from pyscf import gto, scf, mcscf
from pyscf.mcscf import avas
from pyscf.csf_fci import csf_solver
from pyscf.csf_fci.csfstring import count_all_csfs
import numpy as np
import matplotlib.pyplot as plt
from pyscf.tools import molden

def run(b):


    mol = gto.M(
        atom = f'H 0 0 {-b}; He 0 0 0; H 0 0 {b}',
        basis = 'ccpvdz',
        charge = 0,
        spin = 0,
        verbose = 4,
        max_memory = 40000
    )

    ncas = 2     # Number of active orbitals
    nelecas = 2   # Number of active electrons
    mf = scf.RHF(mol).run()

    #Set up solvers for singlet
    solvers = csf_solver(mol, smult=1)
    solvers.nroots = 3

    solverstri = csf_solver(mol, smult=3)
    solverstri.nroots = 1

    # Weights
    weights = np.ones(solvers.nroots+ solverstri.nroots) / (solvers.nroots+ solverstri.nroots)
    mo_coeff = avas.kernel(mf, ['H 1s'],minao=mol.basis)[2]

    #Run CASSCF
    sing = mcscf.CASSCF(mf, ncas, nelecas)
    sing = mcscf.state_average_mix_(sing, [solvers,solverstri], weights)
    print(f'Distance = {b}')
    sing.kernel(mo_coeff)
    sing_e = sing.e_states

    return sing_e

x = [i/20 for i in range(10, 61, 1)]


for b in x:
    sing = (run(b))#INFO: ******************** input file end ********************


System: uname_result(system='Linux', node='midway3-0075.rcc.local', release='4.18.0-305.3.1.el8.x86_64', version='#1 SMP Tue Jun 1 16:14:33 UTC 2021', machine='x86_64')  Threads 4
Python 3.11.5 (main, Nov 30 2024, 03:04:01) [GCC 13.2.0]
numpy 2.3.1  scipy 1.16.0  h5py 3.14.0
Date: Thu Jul 24 10:30:48 2025
PySCF version 2.9.0
PySCF path  /home/jtejada/summerRotation/lib/python3.11/site-packages/pyscf

[CONFIG] conf_file None
[INPUT] verbose = 4
[INPUT] num. atoms = 3
[INPUT] num. electrons = 4
[INPUT] charge = 0
[INPUT] spin (= nelec alpha-beta = 2S) = 0
[INPUT] symmetry False subgroup None
[INPUT] Mole.unit = angstrom
[INPUT] Symbol           X                Y                Z      unit          X                Y                Z       unit  Magmom
[INPUT]  1 H      0.000000000000   0.000000000000  -0.800000000000 AA    0.000000000000   0.000000000000  -1.511780899652 Bohr   0.0
[INPUT]  2 He     0.000000000000   0.000000000000   0.000000000000 AA    0.000000000000   0.000000000000   0.000000000000 Bohr   0.0
[INPUT]  3 H      0.000000000000   0.000000000000   0.800000000000 AA    0.000000000000   0.000000000000   1.511780899652 Bohr   0.0

nuclear repulsion = 2.976621811425
number of shells = 9
number of NR pGTOs = 21
number of NR cGTOs = 15
basis = ccpvdz
ecp = {}
CPU time:        61.11


******** <class 'pyscf.scf.hf.RHF'> ********
method = RHF
initial guess = minao
damping factor = 0
level_shift factor = 0
DIIS = <class 'pyscf.scf.diis.CDIIS'>
diis_start_cycle = 1
diis_space = 8
diis_damp = 0
SCF conv_tol = 1e-09
SCF conv_tol_grad = None
SCF max_cycles = 50
direct_scf = True
direct_scf_tol = 1e-13
chkfile to save SCF result = /scratch/local/jobs/33497194/tmpnvfolvv4
max_memory 40000 MB (current use 150 MB)
Set gradient conv threshold to 3.16228e-05
Initial guess from minao.
init E= -4.05769170429674
  HOMO = -0.111400024028798  LUMO = 0.110709973317698
cycle= 1 E= -3.5964015598456  delta_E= 0.461  |g|= 0.272  |ddm|= 1.83
  HOMO = -0.346342369520008  LUMO = 0.104314908596695
cycle= 2 E= -3.61704178925899  delta_E= -0.0206  |g|= 0.0232  |ddm|= 0.325
  HOMO = -0.322165389204072  LUMO = 0.123465438223848
cycle= 3 E= -3.61715337321225  delta_E= -0.000112  |g|= 0.00346  |ddm|= 0.0173
  HOMO = -0.32156529578019  LUMO = 0.123839254011508
cycle= 4 E= -3.61715682700976  delta_E= -3.45e-06  |g|= 0.000141  |ddm|= 0.0034
  HOMO = -0.321619642735785  LUMO = 0.1237750933666
cycle= 5 E= -3.61715683265171  delta_E= -5.64e-09  |g|= 9.58e-06  |ddm|= 0.000242
  HOMO = -0.32162356943281  LUMO = 0.123772486875305
cycle= 6 E= -3.61715683268613  delta_E= -3.44e-11  |g|= 7.95e-07  |ddm|= 2.45e-05
  HOMO = -0.321623494231446  LUMO = 0.123772110451064
Extra cycle  E= -3.61715683268638  delta_E= -2.52e-13  |g|= 1.97e-07  |ddm|= 7.26e-07
converged SCF energy = -3.61715683268638

******** AVAS flags ********
aolabels = ['H 1s']
ncore = 0
minao = ccpvdz
threshold = 0.2
with_iao = False
openshell_option = 2
canonicalize = True

** AVAS **
  Total number of HF MOs  is equal to    15
  Number of occupied HF MOs is equal to  2
reference AO indices for ccpvdz ['H 1s']:
 [ 0 10]
Option 2: threshold 0.2
Active from occupied = 2 , eig [0.56606243 0.86455704]
Inactive from occupied = 0
Active from unoccupied = 1 , eig [0.43393757]
Inactive from unoccupied = 12
Dimensions of active 3
# of alpha electrons 2
# of beta electrons 2
Distance = 0.8

******** <class 'pyscf.mcscf.addons.StateAverageCASSCF'> ********
CAS (1e+1e, 2o), ncore = 1, nvir = 12
max_cycle_macro = 50
max_cycle_micro = 4
conv_tol = 1e-07
conv_tol_grad = None
orbital rotation max_stepsize = 0.02
orbital rotation threshold for CI restart = 0.01
augmented hessian ah_max_cycle = 30
augmented hessian ah_conv_tol = 1e-12
augmented hessian ah_linear dependence = 1e-14
augmented hessian ah_level shift = 1e-08
augmented hessian ah_start_tol = 2.5
augmented hessian ah_start_cycle = 3
augmented hessian ah_grad_trust_region = 3
kf_trust_region = 3
kf_interval = 4
ci_response_space = 4
ci_grad_trust_region = 3
with_dep4 0
natorb = False
canonicalization = True
sorting_mo_energy = False
ao2mo_level = 2
chkfile = /scratch/local/jobs/33497194/tmpnvfolvv4
max_memory 40000 MB (current use 150 MB)
internal_rotation = False
******** <class 'pyscf.mcscf.addons.StateAverageMixFCISolver'> ********
max. cycles = 100
conv_tol = 1e-10
davidson only = False
linear dependence = 1e-14
level shift = 0.001
max iter space = 12
max_memory 40000 MB
nroots = 4
pspace_size = 200
spin = None
State-average over 4 states with weights [0.25 0.25 0.25 0.25]
CASCI E = -3.02783083442201  S^2 = 0.5000000
Set conv_tol_grad to 0.000316228
macro iter   1 ( 19 JK    4 micro), CASSCF E = -3.21512638964134  dE = -1.87295555e-01  S^2 = 0.5000000
               |grad[o]|=0.452  |ddm|=2.22e-16  |maxRot[o]|=0.276
macro iter   2 ( 21 JK    4 micro), CASSCF E = -3.38082792522644  dE = -1.65701536e-01  S^2 = 0.5000000
               |grad[o]|=0.399  |ddm|=2.22e-16  |maxRot[o]|=0.315
macro iter   3 ( 18 JK    4 micro), CASSCF E = -3.43076011700928  dE = -4.99321918e-02  S^2 = 0.5000000
               |grad[o]|=0.225  |ddm|=2e-27  |maxRot[o]|=0.237
macro iter   4 (  7 JK    3 micro), CASSCF E = -3.43105519534949  dE = -2.95078340e-04  S^2 = 0.5000000
               |grad[o]|=0.0147  |ddm|=2.22e-16  |maxRot[o]|=0.0207
macro iter   5 (  3 JK    1 micro), CASSCF E = -3.43105521193647  dE = -1.65869838e-08  S^2 = 0.5000000
               |grad[o]|=0.00011  |ddm|=2.22e-16  |maxRot[o]|=0.000145
1-step CASSCF converged in   5 macro ( 68 JK  16 micro) steps
CASSCF canonicalization
Density matrix diagonal elements [1. 1.]
CASSCF energy = -3.43105521193647
CASCI E = -3.43105521193647  E(CI) = -0.921544139170690  S^2 = 0.5000000
CASCI state-averaged energy = -3.43105521193647
CASCI energy for each state
  State 0 weight 0.25  E = -3.62924872217594 S^2 = 0.0000000
  State 1 weight 0.25  E = -3.36903584017206 S^2 = 0.0000000
  State 2 weight 0.25  E = -3.19571906072249 S^2 = 0.0000000
  State 3 weight 0.25  E = -3.5302172246754 S^2 = 2.0000000
#INFO: **** input file is /project/lgagliardi/jtejada/examples/LASPrep/HeH2/HeH2.py ****
from pyscf import gto, scf, mcscf
from pyscf.mcscf import avas
from pyscf.csf_fci import csf_solver
from pyscf.csf_fci.csfstring import count_all_csfs
import numpy as np
import matplotlib.pyplot as plt
from pyscf.tools import molden

def run(b):


    mol = gto.M(
        atom = f'H 0 0 {-b}; He 0 0 0; H 0 0 {b}',
        basis = 'ccpvdz',
        charge = 0,
        spin = 0,
        verbose = 4,
        max_memory = 40000
    )

    ncas = 2     # Number of active orbitals
    nelecas = 2   # Number of active electrons
    mf = scf.RHF(mol).run()

    #Set up solvers for singlet
    solvers = csf_solver(mol, smult=1)
    solvers.nroots = 3

    solverstri = csf_solver(mol, smult=3)
    solverstri.nroots = 1

    # Weights
    weights = np.ones(solvers.nroots+ solverstri.nroots) / (solvers.nroots+ solverstri.nroots)
    mo_coeff = avas.kernel(mf, ['H 1s'],minao=mol.basis)[2]

    #Run CASSCF
    sing = mcscf.CASSCF(mf, ncas, nelecas)
    sing = mcscf.state_average_mix_(sing, [solvers,solverstri], weights)
    print(f'Distance = {b}')
    sing.kernel(mo_coeff)
    sing_e = sing.e_states

    return sing_e

x = [i/20 for i in range(10, 61, 1)]


for b in x:
    sing = (run(b))#INFO: ******************** input file end ********************


System: uname_result(system='Linux', node='midway3-0075.rcc.local', release='4.18.0-305.3.1.el8.x86_64', version='#1 SMP Tue Jun 1 16:14:33 UTC 2021', machine='x86_64')  Threads 4
Python 3.11.5 (main, Nov 30 2024, 03:04:01) [GCC 13.2.0]
numpy 2.3.1  scipy 1.16.0  h5py 3.14.0
Date: Thu Jul 24 10:30:51 2025
PySCF version 2.9.0
PySCF path  /home/jtejada/summerRotation/lib/python3.11/site-packages/pyscf

[CONFIG] conf_file None
[INPUT] verbose = 4
[INPUT] num. atoms = 3
[INPUT] num. electrons = 4
[INPUT] charge = 0
[INPUT] spin (= nelec alpha-beta = 2S) = 0
[INPUT] symmetry False subgroup None
[INPUT] Mole.unit = angstrom
[INPUT] Symbol           X                Y                Z      unit          X                Y                Z       unit  Magmom
[INPUT]  1 H      0.000000000000   0.000000000000  -0.850000000000 AA    0.000000000000   0.000000000000  -1.606267205880 Bohr   0.0
[INPUT]  2 He     0.000000000000   0.000000000000   0.000000000000 AA    0.000000000000   0.000000000000   0.000000000000 Bohr   0.0
[INPUT]  3 H      0.000000000000   0.000000000000   0.850000000000 AA    0.000000000000   0.000000000000   1.606267205880 Bohr   0.0

nuclear repulsion = 2.80152641075294
number of shells = 9
number of NR pGTOs = 21
number of NR cGTOs = 15
basis = ccpvdz
ecp = {}
CPU time:        70.56


******** <class 'pyscf.scf.hf.RHF'> ********
method = RHF
initial guess = minao
damping factor = 0
level_shift factor = 0
DIIS = <class 'pyscf.scf.diis.CDIIS'>
diis_start_cycle = 1
diis_space = 8
diis_damp = 0
SCF conv_tol = 1e-09
SCF conv_tol_grad = None
SCF max_cycles = 50
direct_scf = True
direct_scf_tol = 1e-13
chkfile to save SCF result = /scratch/local/jobs/33497194/tmpz605y6bk
max_memory 40000 MB (current use 150 MB)
Set gradient conv threshold to 3.16228e-05
Initial guess from minao.
init E= -3.99370727445888
  HOMO = -0.121672249114963  LUMO = 0.0950578764716917
cycle= 1 E= -3.621388497068  delta_E= 0.372  |g|= 0.253  |ddm|= 1.68
  HOMO = -0.344389403683655  LUMO = 0.0929392854804312
cycle= 2 E= -3.6394675709275  delta_E= -0.0181  |g|= 0.021  |ddm|= 0.274
  HOMO = -0.323042717704942  LUMO = 0.111130566849885
cycle= 3 E= -3.63956204816072  delta_E= -9.45e-05  |g|= 0.00317  |ddm|= 0.0157
  HOMO = -0.322479367921338  LUMO = 0.111525490199323
cycle= 4 E= -3.63956502162219  delta_E= -2.97e-06  |g|= 0.000123  |ddm|= 0.00319
  HOMO = -0.322524704791007  LUMO = 0.11147172975446
cycle= 5 E= -3.63956502580919  delta_E= -4.19e-09  |g|= 7.41e-06  |ddm|= 0.000191
  HOMO = -0.322527652677312  LUMO = 0.111470302143573
cycle= 6 E= -3.63956502582653  delta_E= -1.73e-11  |g|= 4.09e-07  |ddm|= 1.62e-05
  HOMO = -0.32252759478932  LUMO = 0.111470049512903
Extra cycle  E= -3.6395650258266  delta_E= -6.93e-14  |g|= 8.85e-08  |ddm|= 2.83e-07
converged SCF energy = -3.6395650258266

******** AVAS flags ********
aolabels = ['H 1s']
ncore = 0
minao = ccpvdz
threshold = 0.2
with_iao = False
openshell_option = 2
canonicalize = True

** AVAS **
  Total number of HF MOs  is equal to    15
  Number of occupied HF MOs is equal to  2
reference AO indices for ccpvdz ['H 1s']:
 [ 0 10]
Option 2: threshold 0.2
Active from occupied = 2 , eig [0.5179769  0.86308619]
Inactive from occupied = 0
Active from unoccupied = 1 , eig [0.4820231]
Inactive from unoccupied = 12
Dimensions of active 3
# of alpha electrons 2
# of beta electrons 2
Distance = 0.85

******** <class 'pyscf.mcscf.addons.StateAverageCASSCF'> ********
CAS (1e+1e, 2o), ncore = 1, nvir = 12
max_cycle_macro = 50
max_cycle_micro = 4
conv_tol = 1e-07
conv_tol_grad = None
orbital rotation max_stepsize = 0.02
orbital rotation threshold for CI restart = 0.01
augmented hessian ah_max_cycle = 30
augmented hessian ah_conv_tol = 1e-12
augmented hessian ah_linear dependence = 1e-14
augmented hessian ah_level shift = 1e-08
augmented hessian ah_start_tol = 2.5
augmented hessian ah_start_cycle = 3
augmented hessian ah_grad_trust_region = 3
kf_trust_region = 3
kf_interval = 4
ci_response_space = 4
ci_grad_trust_region = 3
with_dep4 0
natorb = False
canonicalization = True
sorting_mo_energy = False
ao2mo_level = 2
chkfile = /scratch/local/jobs/33497194/tmpz605y6bk
max_memory 40000 MB (current use 150 MB)
internal_rotation = False
******** <class 'pyscf.mcscf.addons.StateAverageMixFCISolver'> ********
max. cycles = 100
conv_tol = 1e-10
davidson only = False
linear dependence = 1e-14
level shift = 0.001
max iter space = 12
max_memory 40000 MB
nroots = 4
pspace_size = 200
spin = None
State-average over 4 states with weights [0.25 0.25 0.25 0.25]
CASCI E = -3.11071989353164  S^2 = 0.5000000
Set conv_tol_grad to 0.000316228
macro iter   1 ( 19 JK    4 micro), CASSCF E = -3.28354239169784  dE = -1.72822498e-01  S^2 = 0.5000000
               |grad[o]|=0.397  |ddm|=5.35e-29  |maxRot[o]|=0.276
macro iter   2 ( 21 JK    4 micro), CASSCF E = -3.42751332481030  dE = -1.43970933e-01  S^2 = 0.5000000
               |grad[o]|=0.344  |ddm|=2.22e-16  |maxRot[o]|=0.315
macro iter   3 ( 16 JK    4 micro), CASSCF E = -3.46144486234972  dE = -3.39315375e-02  S^2 = 0.5000000
               |grad[o]|=0.174  |ddm|=2.22e-16  |maxRot[o]|=0.208
macro iter   4 (  5 JK    2 micro), CASSCF E = -3.46155762598203  dE = -1.12763632e-04  S^2 = 0.5000000
               |grad[o]|=0.00887  |ddm|=2.22e-16  |maxRot[o]|=0.013
macro iter   5 (  3 JK    1 micro), CASSCF E = -3.46155762849893  dE = -2.51690846e-09  S^2 = 0.5000000
               |grad[o]|=4.26e-05  |ddm|=2.22e-16  |maxRot[o]|=6.2e-05
1-step CASSCF converged in   5 macro ( 64 JK  15 micro) steps
CASSCF canonicalization
Density matrix diagonal elements [1. 1.]
CASSCF energy = -3.46155762849893
CASCI E = -3.46155762849893  E(CI) = -0.924586145833572  S^2 = 0.5000000
CASCI state-averaged energy = -3.46155762849893
CASCI energy for each state
  State 0 weight 0.25  E = -3.65675456785625 S^2 = 0.0000000
  State 1 weight 0.25  E = -3.38770316170573 S^2 = 0.0000000
  State 2 weight 0.25  E = -3.23442196906585 S^2 = 0.0000000
  State 3 weight 0.25  E = -3.56735081536791 S^2 = 2.0000000
#INFO: **** input file is /project/lgagliardi/jtejada/examples/LASPrep/HeH2/HeH2.py ****
from pyscf import gto, scf, mcscf
from pyscf.mcscf import avas
from pyscf.csf_fci import csf_solver
from pyscf.csf_fci.csfstring import count_all_csfs
import numpy as np
import matplotlib.pyplot as plt
from pyscf.tools import molden

def run(b):


    mol = gto.M(
        atom = f'H 0 0 {-b}; He 0 0 0; H 0 0 {b}',
        basis = 'ccpvdz',
        charge = 0,
        spin = 0,
        verbose = 4,
        max_memory = 40000
    )

    ncas = 2     # Number of active orbitals
    nelecas = 2   # Number of active electrons
    mf = scf.RHF(mol).run()

    #Set up solvers for singlet
    solvers = csf_solver(mol, smult=1)
    solvers.nroots = 3

    solverstri = csf_solver(mol, smult=3)
    solverstri.nroots = 1

    # Weights
    weights = np.ones(solvers.nroots+ solverstri.nroots) / (solvers.nroots+ solverstri.nroots)
    mo_coeff = avas.kernel(mf, ['H 1s'],minao=mol.basis)[2]

    #Run CASSCF
    sing = mcscf.CASSCF(mf, ncas, nelecas)
    sing = mcscf.state_average_mix_(sing, [solvers,solverstri], weights)
    print(f'Distance = {b}')
    sing.kernel(mo_coeff)
    sing_e = sing.e_states

    return sing_e

x = [i/20 for i in range(10, 61, 1)]


for b in x:
    sing = (run(b))#INFO: ******************** input file end ********************


System: uname_result(system='Linux', node='midway3-0075.rcc.local', release='4.18.0-305.3.1.el8.x86_64', version='#1 SMP Tue Jun 1 16:14:33 UTC 2021', machine='x86_64')  Threads 4
Python 3.11.5 (main, Nov 30 2024, 03:04:01) [GCC 13.2.0]
numpy 2.3.1  scipy 1.16.0  h5py 3.14.0
Date: Thu Jul 24 10:30:53 2025
PySCF version 2.9.0
PySCF path  /home/jtejada/summerRotation/lib/python3.11/site-packages/pyscf

[CONFIG] conf_file None
[INPUT] verbose = 4
[INPUT] num. atoms = 3
[INPUT] num. electrons = 4
[INPUT] charge = 0
[INPUT] spin (= nelec alpha-beta = 2S) = 0
[INPUT] symmetry False subgroup None
[INPUT] Mole.unit = angstrom
[INPUT] Symbol           X                Y                Z      unit          X                Y                Z       unit  Magmom
[INPUT]  1 H      0.000000000000   0.000000000000  -0.900000000000 AA    0.000000000000   0.000000000000  -1.700753512109 Bohr   0.0
[INPUT]  2 He     0.000000000000   0.000000000000   0.000000000000 AA    0.000000000000   0.000000000000   0.000000000000 Bohr   0.0
[INPUT]  3 H      0.000000000000   0.000000000000   0.900000000000 AA    0.000000000000   0.000000000000   1.700753512109 Bohr   0.0

nuclear repulsion = 2.6458860546
number of shells = 9
number of NR pGTOs = 21
number of NR cGTOs = 15
basis = ccpvdz
ecp = {}
CPU time:        79.29


******** <class 'pyscf.scf.hf.RHF'> ********
method = RHF
initial guess = minao
damping factor = 0
level_shift factor = 0
DIIS = <class 'pyscf.scf.diis.CDIIS'>
diis_start_cycle = 1
diis_space = 8
diis_damp = 0
SCF conv_tol = 1e-09
SCF conv_tol_grad = None
SCF max_cycles = 50
direct_scf = True
direct_scf_tol = 1e-13
chkfile to save SCF result = /scratch/local/jobs/33497194/tmp4faa28zu
max_memory 40000 MB (current use 150 MB)
Set gradient conv threshold to 3.16228e-05
Initial guess from minao.
init E= -3.93473902874798
  HOMO = -0.130501504497819  LUMO = 0.0773753153489088
cycle= 1 E= -3.63879400534099  delta_E= 0.296  |g|= 0.235  |ddm|= 1.57
  HOMO = -0.341731671099502  LUMO = 0.07994762550228
cycle= 2 E= -3.65458743147023  delta_E= -0.0158  |g|= 0.019  |ddm|= 0.233
  HOMO = -0.323038671514479  LUMO = 0.0970018899096426
cycle= 3 E= -3.65466710133351  delta_E= -7.97e-05  |g|= 0.00289  |ddm|= 0.0146
  HOMO = -0.322521975791304  LUMO = 0.0973950819141353
cycle= 4 E= -3.65466964454746  delta_E= -2.54e-06  |g|= 0.000107  |ddm|= 0.00302
  HOMO = -0.322559366542208  LUMO = 0.0973493094218249
cycle= 5 E= -3.6546696477599  delta_E= -3.21e-09  |g|= 6.53e-06  |ddm|= 0.000158
  HOMO = -0.322561673623948  LUMO = 0.0973483895212732
cycle= 6 E= -3.65466964777236  delta_E= -1.25e-11  |g|= 2.42e-07  |ddm|= 1.25e-05
  HOMO = -0.322561622013862  LUMO = 0.0973482129144049
Extra cycle  E= -3.65466964777238  delta_E= -2.22e-14  |g|= 3.52e-08  |ddm|= 1.84e-07
converged SCF energy = -3.65466964777238

******** AVAS flags ********
aolabels = ['H 1s']
ncore = 0
minao = ccpvdz
threshold = 0.2
with_iao = False
openshell_option = 2
canonicalize = True

** AVAS **
  Total number of HF MOs  is equal to    15
  Number of occupied HF MOs is equal to  2
reference AO indices for ccpvdz ['H 1s']:
 [ 0 10]
Option 2: threshold 0.2
Active from occupied = 2 , eig [0.46915778 0.8606886 ]
Inactive from occupied = 0
Active from unoccupied = 1 , eig [0.53084222]
Inactive from unoccupied = 12
Dimensions of active 3
# of alpha electrons 2
# of beta electrons 2
Distance = 0.9

******** <class 'pyscf.mcscf.addons.StateAverageCASSCF'> ********
CAS (1e+1e, 2o), ncore = 1, nvir = 12
max_cycle_macro = 50
max_cycle_micro = 4
conv_tol = 1e-07
conv_tol_grad = None
orbital rotation max_stepsize = 0.02
orbital rotation threshold for CI restart = 0.01
augmented hessian ah_max_cycle = 30
augmented hessian ah_conv_tol = 1e-12
augmented hessian ah_linear dependence = 1e-14
augmented hessian ah_level shift = 1e-08
augmented hessian ah_start_tol = 2.5
augmented hessian ah_start_cycle = 3
augmented hessian ah_grad_trust_region = 3
kf_trust_region = 3
kf_interval = 4
ci_response_space = 4
ci_grad_trust_region = 3
with_dep4 0
natorb = False
canonicalization = True
sorting_mo_energy = False
ao2mo_level = 2
chkfile = /scratch/local/jobs/33497194/tmp4faa28zu
max_memory 40000 MB (current use 150 MB)
internal_rotation = False
******** <class 'pyscf.mcscf.addons.StateAverageMixFCISolver'> ********
max. cycles = 100
conv_tol = 1e-10
davidson only = False
linear dependence = 1e-14
level shift = 0.001
max iter space = 12
max_memory 40000 MB
nroots = 4
pspace_size = 200
spin = None
State-average over 4 states with weights [0.25 0.25 0.25 0.25]
CASCI E = -3.17882960808407  S^2 = 0.5000000
Set conv_tol_grad to 0.000316228
macro iter   1 ( 20 JK    4 micro), CASSCF E = -3.34999584637731  dE = -1.71166238e-01  S^2 = 0.5000000
               |grad[o]|=0.355  |ddm|=2.22e-16  |maxRot[o]|=0.296
macro iter   2 ( 21 JK    4 micro), CASSCF E = -3.46921873124061  dE = -1.19222885e-01  S^2 = 0.5000000
               |grad[o]|=0.292  |ddm|=2.74e-26  |maxRot[o]|=0.315
macro iter   3 ( 12 JK    3 micro), CASSCF E = -3.48666748958751  dE = -1.74487583e-02  S^2 = 0.5000000
               |grad[o]|= 0.12  |ddm|=2.22e-16  |maxRot[o]|=0.157
macro iter   4 (  3 JK    1 micro), CASSCF E = -3.48668886654418  dE = -2.13769567e-05  S^2 = 0.5000000
               |grad[o]|=0.00383  |ddm|=7.31e-24  |maxRot[o]|=0.00564
macro iter   5 (  1 JK    1 micro), CASSCF E = -3.48668886654418  dE =  0.00000000e+00  S^2 = 0.5000000
               |grad[o]|=1.53e-05  |ddm|=2.22e-16  |maxRot[o]|=    0
1-step CASSCF converged in   5 macro ( 57 JK  13 micro) steps
CASSCF canonicalization
Density matrix diagonal elements [1. 1.]
CASSCF energy = -3.48668886654418
CASCI E = -3.48668886654418  E(CI) = -0.927477744379342  S^2 = 0.5000000
CASCI state-averaged energy = -3.48668886654418
CASCI energy for each state
  State 0 weight 0.25  E = -3.67806405381982 S^2 = 0.0000000
  State 1 weight 0.25  E = -3.40074379462801 S^2 = 0.0000000
  State 2 weight 0.25  E = -3.26819909275448 S^2 = 0.0000000
  State 3 weight 0.25  E = -3.59974852497441 S^2 = 2.0000000
#INFO: **** input file is /project/lgagliardi/jtejada/examples/LASPrep/HeH2/HeH2.py ****
from pyscf import gto, scf, mcscf
from pyscf.mcscf import avas
from pyscf.csf_fci import csf_solver
from pyscf.csf_fci.csfstring import count_all_csfs
import numpy as np
import matplotlib.pyplot as plt
from pyscf.tools import molden

def run(b):


    mol = gto.M(
        atom = f'H 0 0 {-b}; He 0 0 0; H 0 0 {b}',
        basis = 'ccpvdz',
        charge = 0,
        spin = 0,
        verbose = 4,
        max_memory = 40000
    )

    ncas = 2     # Number of active orbitals
    nelecas = 2   # Number of active electrons
    mf = scf.RHF(mol).run()

    #Set up solvers for singlet
    solvers = csf_solver(mol, smult=1)
    solvers.nroots = 3

    solverstri = csf_solver(mol, smult=3)
    solverstri.nroots = 1

    # Weights
    weights = np.ones(solvers.nroots+ solverstri.nroots) / (solvers.nroots+ solverstri.nroots)
    mo_coeff = avas.kernel(mf, ['H 1s'],minao=mol.basis)[2]

    #Run CASSCF
    sing = mcscf.CASSCF(mf, ncas, nelecas)
    sing = mcscf.state_average_mix_(sing, [solvers,solverstri], weights)
    print(f'Distance = {b}')
    sing.kernel(mo_coeff)
    sing_e = sing.e_states

    return sing_e

x = [i/20 for i in range(10, 61, 1)]


for b in x:
    sing = (run(b))#INFO: ******************** input file end ********************


System: uname_result(system='Linux', node='midway3-0075.rcc.local', release='4.18.0-305.3.1.el8.x86_64', version='#1 SMP Tue Jun 1 16:14:33 UTC 2021', machine='x86_64')  Threads 4
Python 3.11.5 (main, Nov 30 2024, 03:04:01) [GCC 13.2.0]
numpy 2.3.1  scipy 1.16.0  h5py 3.14.0
Date: Thu Jul 24 10:30:55 2025
PySCF version 2.9.0
PySCF path  /home/jtejada/summerRotation/lib/python3.11/site-packages/pyscf

[CONFIG] conf_file None
[INPUT] verbose = 4
[INPUT] num. atoms = 3
[INPUT] num. electrons = 4
[INPUT] charge = 0
[INPUT] spin (= nelec alpha-beta = 2S) = 0
[INPUT] symmetry False subgroup None
[INPUT] Mole.unit = angstrom
[INPUT] Symbol           X                Y                Z      unit          X                Y                Z       unit  Magmom
[INPUT]  1 H      0.000000000000   0.000000000000  -0.950000000000 AA    0.000000000000   0.000000000000  -1.795239818337 Bohr   0.0
[INPUT]  2 He     0.000000000000   0.000000000000   0.000000000000 AA    0.000000000000   0.000000000000   0.000000000000 Bohr   0.0
[INPUT]  3 H      0.000000000000   0.000000000000   0.950000000000 AA    0.000000000000   0.000000000000   1.795239818337 Bohr   0.0

nuclear repulsion = 2.50662889383158
number of shells = 9
number of NR pGTOs = 21
number of NR cGTOs = 15
basis = ccpvdz
ecp = {}
CPU time:        86.92


******** <class 'pyscf.scf.hf.RHF'> ********
method = RHF
initial guess = minao
damping factor = 0
level_shift factor = 0
DIIS = <class 'pyscf.scf.diis.CDIIS'>
diis_start_cycle = 1
diis_space = 8
diis_damp = 0
SCF conv_tol = 1e-09
SCF conv_tol_grad = None
SCF max_cycles = 50
direct_scf = True
direct_scf_tol = 1e-13
chkfile to save SCF result = /scratch/local/jobs/33497194/tmppzh7wc9x
max_memory 40000 MB (current use 150 MB)
Set gradient conv threshold to 3.16228e-05
Initial guess from minao.
init E= -3.88119093709286
  HOMO = -0.138068795075747  LUMO = 0.058243268578512
cycle= 1 E= -3.65058237175485  delta_E= 0.231  |g|= 0.217  |ddm|= 1.47
  HOMO = -0.338539959521677  LUMO = 0.065776235026118
cycle= 2 E= -3.6643151054101  delta_E= -0.0137  |g|= 0.0171  |ddm|=  0.2
  HOMO = -0.322329804577607  LUMO = 0.081492731326133
cycle= 3 E= -3.66438200074488  delta_E= -6.69e-05  |g|= 0.00264  |ddm|= 0.0137
  HOMO = -0.321866741622471  LUMO = 0.0818629395454773
cycle= 4 E= -3.6643841633535  delta_E= -2.16e-06  |g|= 9.09e-05  |ddm|= 0.00288
  HOMO = -0.321896811831228  LUMO = 0.0818235024489282
cycle= 5 E= -3.66438416580251  delta_E= -2.45e-09  |g|= 5.93e-06  |ddm|= 0.000135
  HOMO = -0.321898636831098  LUMO = 0.0818226236478882
cycle= 6 E= -3.66438416581272  delta_E= -1.02e-11  |g|= 2.12e-07  |ddm|= 1.05e-05
  HOMO = -0.321898598945805  LUMO = 0.0818224684676342
Extra cycle  E= -3.66438416581274  delta_E= -1.78e-14  |g|= 3.49e-08  |ddm|= 1.45e-07
converged SCF energy = -3.66438416581274

******** AVAS flags ********
aolabels = ['H 1s']
ncore = 0
minao = ccpvdz
threshold = 0.2
with_iao = False
openshell_option = 2
canonicalize = True

** AVAS **
  Total number of HF MOs  is equal to    15
  Number of occupied HF MOs is equal to  2
reference AO indices for ccpvdz ['H 1s']:
 [ 0 10]
Option 2: threshold 0.2
Active from occupied = 2 , eig [0.42082128 0.85754831]
Inactive from occupied = 0
Active from unoccupied = 1 , eig [0.57917872]
Inactive from unoccupied = 12
Dimensions of active 3
# of alpha electrons 2
# of beta electrons 2
Distance = 0.95

******** <class 'pyscf.mcscf.addons.StateAverageCASSCF'> ********
CAS (1e+1e, 2o), ncore = 1, nvir = 12
max_cycle_macro = 50
max_cycle_micro = 4
conv_tol = 1e-07
conv_tol_grad = None
orbital rotation max_stepsize = 0.02
orbital rotation threshold for CI restart = 0.01
augmented hessian ah_max_cycle = 30
augmented hessian ah_conv_tol = 1e-12
augmented hessian ah_linear dependence = 1e-14
augmented hessian ah_level shift = 1e-08
augmented hessian ah_start_tol = 2.5
augmented hessian ah_start_cycle = 3
augmented hessian ah_grad_trust_region = 3
kf_trust_region = 3
kf_interval = 4
ci_response_space = 4
ci_grad_trust_region = 3
with_dep4 0
natorb = False
canonicalization = True
sorting_mo_energy = False
ao2mo_level = 2
chkfile = /scratch/local/jobs/33497194/tmppzh7wc9x
max_memory 40000 MB (current use 150 MB)
internal_rotation = False
******** <class 'pyscf.mcscf.addons.StateAverageMixFCISolver'> ********
max. cycles = 100
conv_tol = 1e-10
davidson only = False
linear dependence = 1e-14
level shift = 0.001
max iter space = 12
max_memory 40000 MB
nroots = 4
pspace_size = 200
spin = None
State-average over 4 states with weights [0.25 0.25 0.25 0.25]
CASCI E = -3.23465574142889  S^2 = 0.5000000
Set conv_tol_grad to 0.000316228
macro iter   1 ( 19 JK    4 micro), CASSCF E = -3.38575186188783  dE = -1.51096120e-01  S^2 = 0.5000000
               |grad[o]|=0.325  |ddm|=2.16e-29  |maxRot[o]|=0.276
macro iter   2 ( 21 JK    4 micro), CASSCF E = -3.49461661475717  dE = -1.08864753e-01  S^2 = 0.5000000
               |grad[o]|=0.264  |ddm|=2.95e-25  |maxRot[o]|=0.315
macro iter   3 ( 12 JK    3 micro), CASSCF E = -3.50772896547372  dE = -1.31123507e-02  S^2 = 0.5000000
               |grad[o]|=0.0987  |ddm|=2.22e-16  |maxRot[o]|=0.139
macro iter   4 (  5 JK    2 micro), CASSCF E = -3.50775267332533  dE = -2.37078516e-05  S^2 = 0.5000000
               |grad[o]|=0.00388  |ddm|=3.14e-16  |maxRot[o]|=0.00622
macro iter   5 (  1 JK    1 micro), CASSCF E = -3.50775267332533  dE =  4.44089210e-16  S^2 = 0.5000000
               |grad[o]|=1.1e-05  |ddm|=2.92e-25  |maxRot[o]|=    0
1-step CASSCF converged in   5 macro ( 58 JK  14 micro) steps
CASSCF canonicalization
Density matrix diagonal elements [1. 1.]
CASSCF energy = -3.50775267332533
CASCI E = -3.50775267332533  E(CI) = -0.930056515061257  S^2 = 0.5000000
CASCI state-averaged energy = -3.50775267332533
CASCI energy for each state
  State 0 weight 0.25  E = -3.6951222858462 S^2 = 0.0000000
  State 1 weight 0.25  E = -3.40988949436637 S^2 = 0.0000000
  State 2 weight 0.25  E = -3.29758245406396 S^2 = 0.0000000
  State 3 weight 0.25  E = -3.62841645902481 S^2 = 2.0000000
#INFO: **** input file is /project/lgagliardi/jtejada/examples/LASPrep/HeH2/HeH2.py ****
from pyscf import gto, scf, mcscf
from pyscf.mcscf import avas
from pyscf.csf_fci import csf_solver
from pyscf.csf_fci.csfstring import count_all_csfs
import numpy as np
import matplotlib.pyplot as plt
from pyscf.tools import molden

def run(b):


    mol = gto.M(
        atom = f'H 0 0 {-b}; He 0 0 0; H 0 0 {b}',
        basis = 'ccpvdz',
        charge = 0,
        spin = 0,
        verbose = 4,
        max_memory = 40000
    )

    ncas = 2     # Number of active orbitals
    nelecas = 2   # Number of active electrons
    mf = scf.RHF(mol).run()

    #Set up solvers for singlet
    solvers = csf_solver(mol, smult=1)
    solvers.nroots = 3

    solverstri = csf_solver(mol, smult=3)
    solverstri.nroots = 1

    # Weights
    weights = np.ones(solvers.nroots+ solverstri.nroots) / (solvers.nroots+ solverstri.nroots)
    mo_coeff = avas.kernel(mf, ['H 1s'],minao=mol.basis)[2]

    #Run CASSCF
    sing = mcscf.CASSCF(mf, ncas, nelecas)
    sing = mcscf.state_average_mix_(sing, [solvers,solverstri], weights)
    print(f'Distance = {b}')
    sing.kernel(mo_coeff)
    sing_e = sing.e_states

    return sing_e

x = [i/20 for i in range(10, 61, 1)]


for b in x:
    sing = (run(b))#INFO: ******************** input file end ********************


System: uname_result(system='Linux', node='midway3-0075.rcc.local', release='4.18.0-305.3.1.el8.x86_64', version='#1 SMP Tue Jun 1 16:14:33 UTC 2021', machine='x86_64')  Threads 4
Python 3.11.5 (main, Nov 30 2024, 03:04:01) [GCC 13.2.0]
numpy 2.3.1  scipy 1.16.0  h5py 3.14.0
Date: Thu Jul 24 10:30:57 2025
PySCF version 2.9.0
PySCF path  /home/jtejada/summerRotation/lib/python3.11/site-packages/pyscf

[CONFIG] conf_file None
[INPUT] verbose = 4
[INPUT] num. atoms = 3
[INPUT] num. electrons = 4
[INPUT] charge = 0
[INPUT] spin (= nelec alpha-beta = 2S) = 0
[INPUT] symmetry False subgroup None
[INPUT] Mole.unit = angstrom
[INPUT] Symbol           X                Y                Z      unit          X                Y                Z       unit  Magmom
[INPUT]  1 H      0.000000000000   0.000000000000  -1.000000000000 AA    0.000000000000   0.000000000000  -1.889726124565 Bohr   0.0
[INPUT]  2 He     0.000000000000   0.000000000000   0.000000000000 AA    0.000000000000   0.000000000000   0.000000000000 Bohr   0.0
[INPUT]  3 H      0.000000000000   0.000000000000   1.000000000000 AA    0.000000000000   0.000000000000   1.889726124565 Bohr   0.0

nuclear repulsion = 2.38129744914
number of shells = 9
number of NR pGTOs = 21
number of NR cGTOs = 15
basis = ccpvdz
ecp = {}
CPU time:        95.06


******** <class 'pyscf.scf.hf.RHF'> ********
method = RHF
initial guess = minao
damping factor = 0
level_shift factor = 0
DIIS = <class 'pyscf.scf.diis.CDIIS'>
diis_start_cycle = 1
diis_space = 8
diis_damp = 0
SCF conv_tol = 1e-09
SCF conv_tol_grad = None
SCF max_cycles = 50
direct_scf = True
direct_scf_tol = 1e-13
chkfile to save SCF result = /scratch/local/jobs/33497194/tmpyjv__rmd
max_memory 40000 MB (current use 150 MB)
Set gradient conv threshold to 3.16228e-05
Initial guess from minao.
init E= -3.83310029293193
  HOMO = -0.144539770877341  LUMO = 0.0383019091431946
cycle= 1 E= -3.65820045602599  delta_E= 0.175  |g|= 0.201  |ddm|=  1.4
  HOMO = -0.334970074950474  LUMO = 0.0508750996253674
cycle= 2 E= -3.67006561926764  delta_E= -0.0119  |g|= 0.0155  |ddm|= 0.172
  HOMO = -0.321073782832478  LUMO = 0.0650720832943031
cycle= 3 E= -3.67012165889009  delta_E= -5.6e-05  |g|= 0.0024  |ddm|= 0.0129
  HOMO = -0.320668849106765  LUMO = 0.0654016716976087
cycle= 4 E= -3.67012349350466  delta_E= -1.83e-06  |g|= 7.59e-05  |ddm|= 0.00275
  HOMO = -0.320692102266123  LUMO = 0.0653674332774403
cycle= 5 E= -3.6701234953959  delta_E= -1.89e-09  |g|= 5.62e-06  |ddm|= 0.000118
  HOMO = -0.32069348556039  LUMO = 0.0653663205293652
cycle= 6 E= -3.67012349540615  delta_E= -1.03e-11  |g|= 3.08e-07  |ddm|= 9.48e-06
  HOMO = -0.320693452818839  LUMO = 0.0653661566830953
Extra cycle  E= -3.67012349540619  delta_E= -4.53e-14  |g|= 8.13e-08  |ddm|= 2.91e-07
converged SCF energy = -3.67012349540619

******** AVAS flags ********
aolabels = ['H 1s']
ncore = 0
minao = ccpvdz
threshold = 0.2
with_iao = False
openshell_option = 2
canonicalize = True

** AVAS **
  Total number of HF MOs  is equal to    15
  Number of occupied HF MOs is equal to  2
reference AO indices for ccpvdz ['H 1s']:
 [ 0 10]
Option 2: threshold 0.2
Active from occupied = 2 , eig [0.37401447 0.85382696]
Inactive from occupied = 0
Active from unoccupied = 1 , eig [0.62598553]
Inactive from unoccupied = 12
Dimensions of active 3
# of alpha electrons 2
# of beta electrons 2
Distance = 1.0

******** <class 'pyscf.mcscf.addons.StateAverageCASSCF'> ********
CAS (1e+1e, 2o), ncore = 1, nvir = 12
max_cycle_macro = 50
max_cycle_micro = 4
conv_tol = 1e-07
conv_tol_grad = None
orbital rotation max_stepsize = 0.02
orbital rotation threshold for CI restart = 0.01
augmented hessian ah_max_cycle = 30
augmented hessian ah_conv_tol = 1e-12
augmented hessian ah_linear dependence = 1e-14
augmented hessian ah_level shift = 1e-08
augmented hessian ah_start_tol = 2.5
augmented hessian ah_start_cycle = 3
augmented hessian ah_grad_trust_region = 3
kf_trust_region = 3
kf_interval = 4
ci_response_space = 4
ci_grad_trust_region = 3
with_dep4 0
natorb = False
canonicalization = True
sorting_mo_energy = False
ao2mo_level = 2
chkfile = /scratch/local/jobs/33497194/tmpyjv__rmd
[...]
    mo_coeff = avas.kernel(mf, ['H 1s'],minao=mol.basis)[2]

    #Run CASSCF
    sing = mcscf.CASSCF(mf, ncas, nelecas)
    sing = mcscf.state_average_mix_(sing, [solvers,solverstri], weights)
    print(f'Distance = {b}')
    sing.kernel(mo_coeff)
    sing_e = sing.e_states

    return sing_e

x = [i/20 for i in range(10, 61, 1)]


for b in x:
    sing = (run(b))#INFO: ******************** input file end ********************


System: uname_result(system='Linux', node='midway3-0075.rcc.local', release='4.18.0-305.3.1.el8.x86_64', version='#1 SMP Tue Jun 1 16:14:33 UTC 2021', machine='x86_64')  Threads 4
Python 3.11.5 (main, Nov 30 2024, 03:04:01) [GCC 13.2.0]
numpy 2.3.1  scipy 1.16.0  h5py 3.14.0
Date: Thu Jul 24 10:31:56 2025
PySCF version 2.9.0
PySCF path  /home/jtejada/summerRotation/lib/python3.11/site-packages/pyscf

[CONFIG] conf_file None
[INPUT] verbose = 4
[INPUT] num. atoms = 3
[INPUT] num. electrons = 4
[INPUT] charge = 0
[INPUT] spin (= nelec alpha-beta = 2S) = 0
[INPUT] symmetry False subgroup None
[INPUT] Mole.unit = angstrom
[INPUT] Symbol           X                Y                Z      unit          X                Y                Z       unit  Magmom
[INPUT]  1 H      0.000000000000   0.000000000000  -2.900000000000 AA    0.000000000000   0.000000000000  -5.480205761239 Bohr   0.0
[INPUT]  2 He     0.000000000000   0.000000000000   0.000000000000 AA    0.000000000000   0.000000000000   0.000000000000 Bohr   0.0
[INPUT]  3 H      0.000000000000   0.000000000000   2.900000000000 AA    0.000000000000   0.000000000000   5.480205761239 Bohr   0.0

nuclear repulsion = 0.821137051427586
number of shells = 9
number of NR pGTOs = 21
number of NR cGTOs = 15
basis = ccpvdz
ecp = {}
CPU time:       318.11


******** <class 'pyscf.scf.hf.RHF'> ********
method = RHF
initial guess = minao
damping factor = 0
level_shift factor = 0
DIIS = <class 'pyscf.scf.diis.CDIIS'>
diis_start_cycle = 1
diis_space = 8
diis_damp = 0
SCF conv_tol = 1e-09
SCF conv_tol_grad = None
SCF max_cycles = 50
direct_scf = True
direct_scf_tol = 1e-13
chkfile to save SCF result = /scratch/local/jobs/33497194/tmp5hxqe1ud
max_memory 40000 MB (current use 151 MB)
Set gradient conv threshold to 3.16228e-05
Initial guess from minao.
init E= -3.50665805269423

WARN: HOMO -0.182405476261831 == LUMO -0.181593394948864

cycle= 1 E= -3.60813033805308  delta_E= -0.101  |g|= 0.0227  |ddm|= 0.983
  HOMO = -0.260829003659711  LUMO = -0.168686774941725
cycle= 2 E= -3.60844570062276  delta_E= -0.000315  |g|= 0.00277  |ddm|= 0.0489
  HOMO = -0.263089448174136  LUMO = -0.170909846699786
cycle= 3 E= -3.60845051947532  delta_E= -4.82e-06  |g|= 1.81e-05  |ddm|= 0.00689
  HOMO = -0.263087100756271  LUMO = -0.170910490575823
cycle= 4 E= -3.60845051959081  delta_E= -1.15e-10  |g|= 4.17e-07  |ddm|= 2.13e-05
  HOMO = -0.263087697248661  LUMO = -0.170910858924662
Extra cycle  E= -3.60845051959089  delta_E= -8.26e-14  |g|= 6.68e-08  |ddm|= 4.09e-07
converged SCF energy = -3.60845051959089

******** AVAS flags ********
aolabels = ['H 1s']
ncore = 0
minao = ccpvdz
threshold = 0.2
with_iao = False
openshell_option = 2
canonicalize = True

** AVAS **
  Total number of HF MOs  is equal to    15
  Number of occupied HF MOs is equal to  2
reference AO indices for ccpvdz ['H 1s']:
 [ 0 10]
Option 2: threshold 0.2
Active from occupied = 1 , eig [0.77744758]
Inactive from occupied = 1
Active from unoccupied = 2 , eig [0.22255242 0.9998359 ]
Inactive from unoccupied = 11
Dimensions of active 3
# of alpha electrons 1
# of beta electrons 1
Distance = 2.9

******** <class 'pyscf.mcscf.addons.StateAverageCASSCF'> ********
CAS (1e+1e, 2o), ncore = 1, nvir = 12
max_cycle_macro = 50
max_cycle_micro = 4
conv_tol = 1e-07
conv_tol_grad = None
orbital rotation max_stepsize = 0.02
orbital rotation threshold for CI restart = 0.01
augmented hessian ah_max_cycle = 30
augmented hessian ah_conv_tol = 1e-12
augmented hessian ah_linear dependence = 1e-14
augmented hessian ah_level shift = 1e-08
augmented hessian ah_start_tol = 2.5
augmented hessian ah_start_cycle = 3
augmented hessian ah_grad_trust_region = 3
kf_trust_region = 3
kf_interval = 4
ci_response_space = 4
ci_grad_trust_region = 3
with_dep4 0
natorb = False
canonicalization = True
sorting_mo_energy = False
ao2mo_level = 2
chkfile = /scratch/local/jobs/33497194/tmp5hxqe1ud
max_memory 40000 MB (current use 151 MB)
internal_rotation = False
******** <class 'pyscf.mcscf.addons.StateAverageMixFCISolver'> ********
max. cycles = 100
conv_tol = 1e-10
davidson only = False
linear dependence = 1e-14
level shift = 0.001
max iter space = 12
max_memory 40000 MB
nroots = 4
pspace_size = 200
spin = None
State-average over 4 states with weights [0.25 0.25 0.25 0.25]
CASCI E = -3.45109451695653  S^2 = 0.5000000
Set conv_tol_grad to 0.000316228
macro iter   1 ( 21 JK    4 micro), CASSCF E = -3.58726972494201  dE = -1.36175208e-01  S^2 = 0.5000000
               |grad[o]|=0.291  |ddm|=    0  |maxRot[o]|=0.315
macro iter   2 ( 13 JK    3 micro), CASSCF E = -3.60754599469595  dE = -2.02762698e-02  S^2 = 0.5000000
               |grad[o]|= 0.12  |ddm|=5.48e-26  |maxRot[o]|=0.163
macro iter   3 (  3 JK    1 micro), CASSCF E = -3.60756337317420  dE = -1.73784782e-05  S^2 = 0.5000000
               |grad[o]|=0.00361  |ddm|=3.14e-16  |maxRot[o]|=0.00475
macro iter   4 (  1 JK    1 micro), CASSCF E = -3.60756337317420  dE =  0.00000000e+00  S^2 = 0.5000000
               |grad[o]|=5.72e-07  |ddm|=3.14e-16  |maxRot[o]|=    0
1-step CASSCF converged in   4 macro ( 38 JK   9 micro) steps
CASSCF canonicalization
Density matrix diagonal elements [1. 1.]
CASSCF energy = -3.60756337317420
CASCI E = -3.60756337317420  E(CI) = -0.843420961508312  S^2 = 0.5000000
CASCI state-averaged energy = -3.6075633731742
CASCI energy for each state
  State 0 weight 0.25  E = -3.83467605915816 S^2 = 0.0000000
  State 1 weight 0.25  E = -3.38045242251104 S^2 = 0.0000000
  State 2 weight 0.25  E = -3.38044908017381 S^2 = 0.0000000
  State 3 weight 0.25  E = -3.83467593085379 S^2 = 2.0000000
#INFO: **** input file is /project/lgagliardi/jtejada/examples/LASPrep/HeH2/HeH2.py ****
from pyscf import gto, scf, mcscf
from pyscf.mcscf import avas
from pyscf.csf_fci import csf_solver
from pyscf.csf_fci.csfstring import count_all_csfs
import numpy as np
import matplotlib.pyplot as plt
from pyscf.tools import molden

def run(b):


    mol = gto.M(
        atom = f'H 0 0 {-b}; He 0 0 0; H 0 0 {b}',
        basis = 'ccpvdz',
        charge = 0,
        spin = 0,
        verbose = 4,
        max_memory = 40000
    )

    ncas = 2     # Number of active orbitals
    nelecas = 2   # Number of active electrons
    mf = scf.RHF(mol).run()

    #Set up solvers for singlet
    solvers = csf_solver(mol, smult=1)
    solvers.nroots = 3

    solverstri = csf_solver(mol, smult=3)
    solverstri.nroots = 1

    # Weights
    weights = np.ones(solvers.nroots+ solverstri.nroots) / (solvers.nroots+ solverstri.nroots)
    mo_coeff = avas.kernel(mf, ['H 1s'],minao=mol.basis)[2]

    #Run CASSCF
    sing = mcscf.CASSCF(mf, ncas, nelecas)
    sing = mcscf.state_average_mix_(sing, [solvers,solverstri], weights)
    print(f'Distance = {b}')
    sing.kernel(mo_coeff)
    sing_e = sing.e_states

    return sing_e

x = [i/20 for i in range(10, 61, 1)]


for b in x:
    sing = (run(b))#INFO: ******************** input file end ********************


System: uname_result(system='Linux', node='midway3-0075.rcc.local', release='4.18.0-305.3.1.el8.x86_64', version='#1 SMP Tue Jun 1 16:14:33 UTC 2021', machine='x86_64')  Threads 4
Python 3.11.5 (main, Nov 30 2024, 03:04:01) [GCC 13.2.0]
numpy 2.3.1  scipy 1.16.0  h5py 3.14.0
Date: Thu Jul 24 10:31:58 2025
PySCF version 2.9.0
PySCF path  /home/jtejada/summerRotation/lib/python3.11/site-packages/pyscf

[CONFIG] conf_file None
[INPUT] verbose = 4
[INPUT] num. atoms = 3
[INPUT] num. electrons = 4
[INPUT] charge = 0
[INPUT] spin (= nelec alpha-beta = 2S) = 0
[INPUT] symmetry False subgroup None
[INPUT] Mole.unit = angstrom
[INPUT] Symbol           X                Y                Z      unit          X                Y                Z       unit  Magmom
[INPUT]  1 H      0.000000000000   0.000000000000  -2.950000000000 AA    0.000000000000   0.000000000000  -5.574692067467 Bohr   0.0
[INPUT]  2 He     0.000000000000   0.000000000000   0.000000000000 AA    0.000000000000   0.000000000000   0.000000000000 Bohr   0.0
[INPUT]  3 H      0.000000000000   0.000000000000   2.950000000000 AA    0.000000000000   0.000000000000   5.574692067467 Bohr   0.0

nuclear repulsion = 0.807219474284746
number of shells = 9
number of NR pGTOs = 21
number of NR cGTOs = 15
basis = ccpvdz
ecp = {}
CPU time:       323.45


******** <class 'pyscf.scf.hf.RHF'> ********
method = RHF
initial guess = minao
damping factor = 0
level_shift factor = 0
DIIS = <class 'pyscf.scf.diis.CDIIS'>
diis_start_cycle = 1
diis_space = 8
diis_damp = 0
SCF conv_tol = 1e-09
SCF conv_tol_grad = None
SCF max_cycles = 50
direct_scf = True
direct_scf_tol = 1e-13
chkfile to save SCF result = /scratch/local/jobs/33497194/tmptrd0amn5
max_memory 40000 MB (current use 151 MB)
Set gradient conv threshold to 3.16228e-05
Initial guess from minao.
init E= -3.50653534951988

WARN: HOMO -0.182420318434285 == LUMO -0.181734867010903

cycle= 1 E= -3.60733128461581  delta_E= -0.101  |g|= 0.0226  |ddm|= 0.983
  HOMO = -0.260061824675402  LUMO = -0.169600760894837
cycle= 2 E= -3.60764528077451  delta_E= -0.000314  |g|= 0.00275  |ddm|= 0.0489
  HOMO = -0.26232144824498  LUMO = -0.17182464533252
cycle= 3 E= -3.60765002585014  delta_E= -4.75e-06  |g|= 1.69e-05  |ddm|= 0.00684
  HOMO = -0.262318807318653  LUMO = -0.171824904634777
cycle= 4 E= -3.6076500259519  delta_E= -1.02e-10  |g|= 4.7e-07  |ddm|= 1.94e-05
  HOMO = -0.262319397064437  LUMO = -0.171825270750567
Extra cycle  E= -3.60765002595204  delta_E= -1.39e-13  |g|= 9.33e-08  |ddm|= 4.88e-07
converged SCF energy = -3.60765002595204

******** AVAS flags ********
aolabels = ['H 1s']
ncore = 0
minao = ccpvdz
threshold = 0.2
with_iao = False
openshell_option = 2
canonicalize = True

** AVAS **
  Total number of HF MOs  is equal to    15
  Number of occupied HF MOs is equal to  2
reference AO indices for ccpvdz ['H 1s']:
 [ 0 10]
Option 2: threshold 0.2
Active from occupied = 1 , eig [0.77741794]
Inactive from occupied = 1
Active from unoccupied = 2 , eig [0.22258206 0.99986994]
Inactive from unoccupied = 11
Dimensions of active 3
# of alpha electrons 1
# of beta electrons 1
Distance = 2.95

******** <class 'pyscf.mcscf.addons.StateAverageCASSCF'> ********
CAS (1e+1e, 2o), ncore = 1, nvir = 12
max_cycle_macro = 50
max_cycle_micro = 4
conv_tol = 1e-07
conv_tol_grad = None
orbital rotation max_stepsize = 0.02
orbital rotation threshold for CI restart = 0.01
augmented hessian ah_max_cycle = 30
augmented hessian ah_conv_tol = 1e-12
augmented hessian ah_linear dependence = 1e-14
augmented hessian ah_level shift = 1e-08
augmented hessian ah_start_tol = 2.5
augmented hessian ah_start_cycle = 3
augmented hessian ah_grad_trust_region = 3
kf_trust_region = 3
kf_interval = 4
ci_response_space = 4
ci_grad_trust_region = 3
with_dep4 0
natorb = False
canonicalization = True
sorting_mo_energy = False
ao2mo_level = 2
chkfile = /scratch/local/jobs/33497194/tmptrd0amn5
max_memory 40000 MB (current use 151 MB)
internal_rotation = False
******** <class 'pyscf.mcscf.addons.StateAverageMixFCISolver'> ********
max. cycles = 100
conv_tol = 1e-10
davidson only = False
linear dependence = 1e-14
level shift = 0.001
max iter space = 12
max_memory 40000 MB
nroots = 4
pspace_size = 200
spin = None
State-average over 4 states with weights [0.25 0.25 0.25 0.25]
CASCI E = -3.45031896544214  S^2 = 0.5000000
Set conv_tol_grad to 0.000316228
macro iter   1 ( 21 JK    4 micro), CASSCF E = -3.58652959501439  dE = -1.36210630e-01  S^2 = 0.5000000
               |grad[o]|=0.291  |ddm|=2.22e-16  |maxRot[o]|=0.315
macro iter   2 ( 13 JK    3 micro), CASSCF E = -3.60687797578209  dE = -2.03483808e-02  S^2 = 0.5000000
               |grad[o]|= 0.12  |ddm|=2.19e-25  |maxRot[o]|=0.163
macro iter   3 (  3 JK    1 micro), CASSCF E = -3.60689513476082  dE = -1.71589787e-05  S^2 = 0.5000000
               |grad[o]|=0.00358  |ddm|=2.22e-16  |maxRot[o]|=0.00472
macro iter   4 (  1 JK    1 micro), CASSCF E = -3.60689513476082  dE =  0.00000000e+00  S^2 = 0.5000000
               |grad[o]|=5.26e-07  |ddm|=7.31e-26  |maxRot[o]|=    0
1-step CASSCF converged in   4 macro ( 38 JK   9 micro) steps
CASSCF canonicalization
Density matrix diagonal elements [1. 1.]
CASSCF energy = -3.60689513476082
CASCI E = -3.60689513476082  E(CI) = -0.841231425584771  S^2 = 0.5000000
CASCI state-averaged energy = -3.60689513476082
CASCI energy for each state
  State 0 weight 0.25  E = -3.83473747528445 S^2 = 0.0000000
  State 1 weight 0.25  E = -3.37905404642494 S^2 = 0.0000000
  State 2 weight 0.25  E = -3.37905161579659 S^2 = 0.0000000
  State 3 weight 0.25  E = -3.83473740153732 S^2 = 2.0000000
#INFO: **** input file is /project/lgagliardi/jtejada/examples/LASPrep/HeH2/HeH2.py ****
from pyscf import gto, scf, mcscf
from pyscf.mcscf import avas
from pyscf.csf_fci import csf_solver
from pyscf.csf_fci.csfstring import count_all_csfs
import numpy as np
import matplotlib.pyplot as plt
from pyscf.tools import molden

def run(b):


    mol = gto.M(
        atom = f'H 0 0 {-b}; He 0 0 0; H 0 0 {b}',
        basis = 'ccpvdz',
        charge = 0,
        spin = 0,
        verbose = 4,
        max_memory = 40000
    )

    ncas = 2     # Number of active orbitals
    nelecas = 2   # Number of active electrons
    mf = scf.RHF(mol).run()

    #Set up solvers for singlet
    solvers = csf_solver(mol, smult=1)
    solvers.nroots = 3

    solverstri = csf_solver(mol, smult=3)
    solverstri.nroots = 1

    # Weights
    weights = np.ones(solvers.nroots+ solverstri.nroots) / (solvers.nroots+ solverstri.nroots)
    mo_coeff = avas.kernel(mf, ['H 1s'],minao=mol.basis)[2]

    #Run CASSCF
    sing = mcscf.CASSCF(mf, ncas, nelecas)
    sing = mcscf.state_average_mix_(sing, [solvers,solverstri], weights)
    print(f'Distance = {b}')
    sing.kernel(mo_coeff)
    sing_e = sing.e_states

    return sing_e

x = [i/20 for i in range(10, 61, 1)]


for b in x:
    sing = (run(b))#INFO: ******************** input file end ********************


System: uname_result(system='Linux', node='midway3-0075.rcc.local', release='4.18.0-305.3.1.el8.x86_64', version='#1 SMP Tue Jun 1 16:14:33 UTC 2021', machine='x86_64')  Threads 4
Python 3.11.5 (main, Nov 30 2024, 03:04:01) [GCC 13.2.0]
numpy 2.3.1  scipy 1.16.0  h5py 3.14.0
Date: Thu Jul 24 10:31:59 2025
PySCF version 2.9.0
PySCF path  /home/jtejada/summerRotation/lib/python3.11/site-packages/pyscf

[CONFIG] conf_file None
[INPUT] verbose = 4
[INPUT] num. atoms = 3
[INPUT] num. electrons = 4
[INPUT] charge = 0
[INPUT] spin (= nelec alpha-beta = 2S) = 0
[INPUT] symmetry False subgroup None
[INPUT] Mole.unit = angstrom
[INPUT] Symbol           X                Y                Z      unit          X                Y                Z       unit  Magmom
[INPUT]  1 H      0.000000000000   0.000000000000  -3.000000000000 AA    0.000000000000   0.000000000000  -5.669178373695 Bohr   0.0
[INPUT]  2 He     0.000000000000   0.000000000000   0.000000000000 AA    0.000000000000   0.000000000000   0.000000000000 Bohr   0.0
[INPUT]  3 H      0.000000000000   0.000000000000   3.000000000000 AA    0.000000000000   0.000000000000   5.669178373695 Bohr   0.0

nuclear repulsion = 0.79376581638
number of shells = 9
number of NR pGTOs = 21
number of NR cGTOs = 15
basis = ccpvdz
ecp = {}
CPU time:       328.82


******** <class 'pyscf.scf.hf.RHF'> ********
method = RHF
initial guess = minao
damping factor = 0
level_shift factor = 0
DIIS = <class 'pyscf.scf.diis.CDIIS'>
diis_start_cycle = 1
diis_space = 8
diis_damp = 0
SCF conv_tol = 1e-09
SCF conv_tol_grad = None
SCF max_cycles = 50
direct_scf = True
direct_scf_tol = 1e-13
chkfile to save SCF result = /scratch/local/jobs/33497194/tmpfvkadzve
max_memory 40000 MB (current use 151 MB)
Set gradient conv threshold to 3.16228e-05
Initial guess from minao.
init E= -3.50643066874475

WARN: HOMO -0.182432453344401 == LUMO -0.181855747677892

cycle= 1 E= -3.60655931232621  delta_E= -0.1  |g|= 0.0226  |ddm|= 0.983
  HOMO = -0.259317914240888  LUMO = -0.170468594883983
cycle= 2 E= -3.60687209889339  delta_E= -0.000313  |g|= 0.00273  |ddm|= 0.0489
  HOMO = -0.261576792329362  LUMO = -0.172693243350368
cycle= 3 E= -3.60687677439247  delta_E= -4.68e-06  |g|= 1.58e-05  |ddm|= 0.0068
  HOMO = -0.26157389998899  LUMO = -0.172693163690745
cycle= 4 E= -3.60687677448385  delta_E= -9.14e-11  |g|= 5.32e-07  |ddm|= 1.79e-05
  HOMO = -0.261574484275184  LUMO = -0.172693527978373
Extra cycle  E= -3.60687677448405  delta_E= -2.03e-13  |g|= 1.15e-07  |ddm|= 5.77e-07
converged SCF energy = -3.60687677448405

******** AVAS flags ********
aolabels = ['H 1s']
ncore = 0
minao = ccpvdz
threshold = 0.2
with_iao = False
openshell_option = 2
canonicalize = True

** AVAS **
  Total number of HF MOs  is equal to    15
  Number of occupied HF MOs is equal to  2
reference AO indices for ccpvdz ['H 1s']:
 [ 0 10]
Option 2: threshold 0.2
Active from occupied = 1 , eig [0.7773978]
Inactive from occupied = 1
Active from unoccupied = 2 , eig [0.2226022  0.99989685]
Inactive from unoccupied = 11
Dimensions of active 3
# of alpha electrons 1
# of beta electrons 1
Distance = 3.0

******** <class 'pyscf.mcscf.addons.StateAverageCASSCF'> ********
CAS (1e+1e, 2o), ncore = 1, nvir = 12
max_cycle_macro = 50
max_cycle_micro = 4
conv_tol = 1e-07
conv_tol_grad = None
orbital rotation max_stepsize = 0.02
orbital rotation threshold for CI restart = 0.01
augmented hessian ah_max_cycle = 30
augmented hessian ah_conv_tol = 1e-12
augmented hessian ah_linear dependence = 1e-14
augmented hessian ah_level shift = 1e-08
augmented hessian ah_start_tol = 2.5
augmented hessian ah_start_cycle = 3
augmented hessian ah_grad_trust_region = 3
kf_trust_region = 3
kf_interval = 4
ci_response_space = 4
ci_grad_trust_region = 3
with_dep4 0
natorb = False
canonicalization = True
sorting_mo_energy = False
ao2mo_level = 2
chkfile = /scratch/local/jobs/33497194/tmpfvkadzve
max_memory 40000 MB (current use 151 MB)
internal_rotation = False
******** <class 'pyscf.mcscf.addons.StateAverageMixFCISolver'> ********
max. cycles = 100
conv_tol = 1e-10
davidson only = False
linear dependence = 1e-14
level shift = 0.001
max iter space = 12
max_memory 40000 MB
nroots = 4
pspace_size = 200
spin = None
State-average over 4 states with weights [0.25 0.25 0.25 0.25]
CASCI E = -3.44956662781290  S^2 = 0.5000000
Set conv_tol_grad to 0.000316228
macro iter   1 ( 21 JK    4 micro), CASSCF E = -3.58580730570691  dE = -1.36240678e-01  S^2 = 0.5000000
               |grad[o]|=0.291  |ddm|=    0  |maxRot[o]|=0.315
macro iter   2 ( 13 JK    3 micro), CASSCF E = -3.60621935178908  dE = -2.04120461e-02  S^2 = 0.5000000
               |grad[o]|= 0.12  |ddm|=4.53e-24  |maxRot[o]|=0.164
macro iter   3 (  3 JK    1 micro), CASSCF E = -3.60623631206571  dE = -1.69602766e-05  S^2 = 0.5000000
               |grad[o]|=0.00356  |ddm|=3.14e-16  |maxRot[o]|=0.00469
macro iter   4 (  1 JK    1 micro), CASSCF E = -3.60623631206571  dE =  0.00000000e+00  S^2 = 0.5000000
               |grad[o]|=4.9e-07  |ddm|=2.22e-16  |maxRot[o]|=    0
1-step CASSCF converged in   4 macro ( 38 JK   9 micro) steps
CASSCF canonicalization
Density matrix diagonal elements [1. 1.]
CASSCF energy = -3.60623631206571
CASCI E = -3.60623631206571  E(CI) = -0.839100020689447  S^2 = 0.5000000
CASCI state-averaged energy = -3.60623631206571
CASCI energy for each state
  State 0 weight 0.25  E = -3.83478855085085 S^2 = 0.0000000
  State 1 weight 0.25  E = -3.37768497164602 S^2 = 0.0000000
  State 2 weight 0.25  E = -3.37768321514829 S^2 = 0.0000000
  State 3 weight 0.25  E = -3.83478851061768 S^2 = 2.0000000
