[Molden Format]
made by pyscf v[2.9.0]
[Atoms] (AU)
H   1   1     0.00000000000000     0.00000000000000     0.00000000000000
H   2   1     1.41729459342380     0.37976294174490     0.00000000000000
H   3   1     0.49222124673047     5.62611459465967     0.00000000000000
H   4   1    -1.41729459342380     5.28941543195028     0.00000000000000
[GTO]
1 0
 s    3 1.00
                 13.01   0.033498726389998
                 1.962    0.23480080117413
                0.4446     0.8136829578829
 s    1 1.00
                 0.122                   1
 p    1 1.00
                 0.727                   1

2 0
 s    3 1.00
                 13.01   0.033498726389998
                 1.962    0.23480080117413
                0.4446     0.8136829578829
 s    1 1.00
                 0.122                   1
 p    1 1.00
                 0.727                   1

3 0
 s    3 1.00
                 13.01   0.033498726389998
                 1.962    0.23480080117413
                0.4446     0.8136829578829
 s    1 1.00
                 0.122                   1
 p    1 1.00
                 0.727                   1

4 0
 s    3 1.00
                 13.01   0.033498726389998
                 1.962    0.23480080117413
                0.4446     0.8136829578829
 s    1 1.00
                 0.122                   1
 p    1 1.00
                 0.727                   1

[5d]
[7f]
[9g]

[MO]
 Sym= A
 Ene=               0
 Spin= Alpha
 Occup=    1.00000
   1     -0.39822081931147
   2     -0.17137750888106
   3    -0.016744614540876
   4    -0.0049924270900363
   5    5.613301234841e-19
   6     -0.39879303620496
   7     -0.17115429515776
   8     0.017042001753447
   9    0.0040358322986733
  10    1.5564635842114e-17
  11    -0.066198369946241
  12    -0.037631739005385
  13    0.0048547939757681
  14    0.0017987331820032
  15    -9.1420264915274e-18
  16    -0.065597416578497
  17    -0.036681617002199
  18    -0.005135640216177
  19    -5.5181837449656e-05
  20    -9.4054115731507e-18
 Sym= A
 Ene=               1
 Spin= Alpha
 Occup=    1.00000
   1     0.087091091963292
   2     0.038320633284842
   3    0.0036834870864672
   4    0.00031217865484072
   5    1.5375581315222e-17
   6     0.084986468662065
   7     0.039646299690485
   8    -0.0034895883677159
   9    -0.0016160611207258
  10    4.9492791011424e-19
  11     -0.38982913056529
  12     -0.20734797607861
  13     0.035183471478044
  14     0.005424610272994
  15    7.9063144367351e-18
  16     -0.39007570357712
  17     -0.20699914918692
  18    -0.034899021549535
  19    -0.0068760799331357
  20    7.9399412436238e-18
 Sym= A
 Ene=               2
 Spin= Alpha
 Occup=    0.00000
   1      0.19151365733655
   2      0.31325330415301
   3    -0.0021900764517143
   4    0.0029546938710368
   5    4.8606862151617e-17
   6     -0.18605029782454
   7     -0.30932836633645
   8    -0.00088898197264748
   9    -0.0043923309846661
  10    6.6569222085051e-17
  11     -0.18069134415202
  12      -1.2310617952306
  13    -0.0060811251754841
  14    0.00017007128987898
  15    -1.3857183656082e-17
  16      0.18087765865565
  17       1.2327825468865
  18    -0.005251697014612
  19    -0.0019895490030686
  20    -1.6053559377124e-17
 Sym= A
 Ene=               3
 Spin= Alpha
 Occup=    0.00000
   1     -0.92503691923781
   2     -0.17303001745095
   3     0.021311819654925
   4    0.0050591645446369
   5    -3.1477749222379e-16
   6      0.92681940443535
   7      0.17422621824403
   8     0.020513010899409
   9    0.0061591052071864
  10    -2.7712223704272e-16
  11    -0.083386275560476
  12      -0.3920557816038
  13    -0.0021594760011998
  14    -0.00022704618246132
  15    8.0660350504331e-17
  16     0.080084542691376
  17      0.39168744211631
  18    -0.0028378553089341
  19    -0.00066743044812313
  20    1.1150826930174e-16
