[Molden Format]
made by pyscf v[2.9.0]
[Atoms] (AU)
O   1   8     0.00000000000000     0.00000000000000     0.00000000000000
H   2   1     0.00000000000000    -1.43052267629575     1.10926923511969
H   3   1     0.00000000000000     1.43052267629575     1.10926923511969
[GTO]
1 0
 s    3 1.00
             130.70932    0.15432896872316
             23.808861    0.53532813557095
             6.4436083    0.44463453632131
 s    3 1.00
             5.0331513  -0.099967228656673
             1.1695961    0.39951282463148
              0.380389    0.70011546059208
 p    3 1.00
             5.0331513    0.15591626847816
             1.1695961    0.60768371406861
              0.380389    0.39195738617424

2 0
 s    3 1.00
            3.42525091    0.15432897070298
            0.62391373    0.53532814243847
             0.1688554    0.44463454202535

3 0
 s    3 1.00
            3.42525091    0.15432897070298
            0.62391373    0.53532814243847
             0.1688554    0.44463454202535

[5d]
[7f]
[9g]

[MO]
 Sym= A
 Ene=               0
 Spin= Alpha
 Occup=    1.00000
   1    -0.030509348242289
   2     0.014659301989901
   3    3.4051755946775e-05
   4     -0.45536706348402
   5      0.48093068969927
   6      0.53878594782552
   7    -0.096433463214688
 Sym= A
 Ene=               1
 Spin= Alpha
 Occup=    1.00000
   1    -0.040481585059906
   2     0.066919520607893
   3    1.5709796394827e-06
   4      0.46841885971201
   5       0.5611984323902
   6     -0.06047354803547
   7      0.44418992652858
 Sym= A
 Ene=               2
 Spin= Alpha
 Occup=    1.00000
   1     -0.12879278367622
   2      0.87451871847056
   3    3.758111153812e-06
   4    -0.025436721860575
   5      0.71909750008307
   6     -0.78998612956975
   7     -0.82270673916871
 Sym= A
 Ene=               3
 Spin= Alpha
 Occup=    1.00000
   1    0.0018536956179436
   2    -0.0024619785314812
   3    -5.5599796648452e-06
   4      0.95936092847845
   5    -0.026690166363937
   6      0.84767336575119
   7     -0.86782526900678
