[Molden Format]
made by pyscf v[2.9.0]
[Atoms] (AU)
H   1   1     0.00000000000000     0.00000000000000     0.00000000000000
H   2   1     0.00000000000000     1.13383567473904     0.00000000000000
H   3   1     0.56691783736952     0.56691783736952     0.00000000000000
H   4   1    -0.56691783736952     0.56691783736952     0.00000000000000
[GTO]
1 0
 s    3 1.00
                 13.01   0.033498726389998
                 1.962    0.23480080117413
                0.4446     0.8136829578829
 s    1 1.00
                 0.122                   1
 p    1 1.00
                 0.727                   1

2 0
 s    3 1.00
                 13.01   0.033498726389998
                 1.962    0.23480080117413
                0.4446     0.8136829578829
 s    1 1.00
                 0.122                   1
 p    1 1.00
                 0.727                   1

3 0
 s    3 1.00
                 13.01   0.033498726389998
                 1.962    0.23480080117413
                0.4446     0.8136829578829
 s    1 1.00
                 0.122                   1
 p    1 1.00
                 0.727                   1

4 0
 s    3 1.00
                 13.01   0.033498726389998
                 1.962    0.23480080117413
                0.4446     0.8136829578829
 s    1 1.00
                 0.122                   1
 p    1 1.00
                 0.727                   1

[5d]
[7f]
[9g]

[MO]
 Sym= A
 Ene=               0
 Spin= Alpha
 Occup=    1.00000
   1      -0.2478673582066
   2     0.017879281655004
   3    0.00016558139829783
   4    -0.092572821107042
   5    2.0112298946596e-17
   6     -0.24786735820659
   7     0.017879281655007
   8    -0.00016558139829777
   9     0.092572821107043
  10    -2.4399337853836e-18
  11     -0.24787083911258
  12     0.017923641029195
  13     0.092573334747459
  14    -0.00016560900925939
  15    1.645774625087e-18
  16     -0.24787083911257
  17     0.017923641029195
  18    -0.092573334747459
  19    0.00016560900926036
  20    6.0954603882898e-18
 Sym= A
 Ene=               1
 Spin= Alpha
 Occup=    1.00000
   1     -0.34304602277163
   2      -1.0831338446805
   3     0.049358917570258
   4     0.024879547456834
   5    -7.1517533994876e-17
   6      0.34304602277165
   7       1.0831338446826
   8     0.049358917570263
   9     0.024879547456825
  10    -5.7693552417141e-18
  11      0.34302114568868
  12       1.0830850923665
  13     0.024877933238821
  14     0.049361454126381
  15    -1.1386522499501e-17
  16      -0.3430211456887
  17      -1.0830850923686
  18     0.024877933238813
  19     0.049361454126388
  20    -3.9404489239278e-17
 Sym= A
 Ene=               2
 Spin= Alpha
 Occup=    0.00000
   1      0.33392006493046
   2        1.104690622044
   3     0.048885169873091
   4    -0.024497034070526
   5    2.5143550480658e-18
   6     -0.33392006493034
   7       -1.104690622044
   8     0.048885169873087
   9     -0.02449703407054
  10    1.1130256035722e-18
  11      0.33393145528206
  12       1.1047690346126
  13     0.024497847310176
  14    -0.048882572779324
  15    1.0766001660109e-17
  16     -0.33393145528195
  17      -1.1047690346129
  18     0.024497847310187
  19    -0.048882572779312
  20    6.8087744923884e-18
 Sym= A
 Ene=               3
 Spin= Alpha
 Occup=    0.00000
   1      0.22295698846148
   2     -0.35360431199003
   3    0.0087573699787699
   4     0.027081272685576
   5    -1.9399117791396e-17
   6      0.22295698846164
   7     -0.35360431198947
   8    -0.0087573699787946
   9    -0.027081272685568
  10    -1.6227258021782e-17
  11      0.22297122364672
  12     -0.35249745809965
  13    -0.027066250963302
  14    -0.008760245314399
  15    2.2207691917107e-17
  16       0.2229712236469
  17     -0.35249745809908
  18     0.027066250963292
  19    0.0087602453144247
  20    -2.783981769589e-17
