[Molden Format]
made by pyscf v[2.9.0]
[Atoms] (AU)
H   1   1     0.00000000000000     0.00000000000000     0.00000000000000
H   2   1     0.00000000000000     2.64561657439109     0.00000000000000
H   3   1     1.32280828719554     1.32280828719554     0.00000000000000
H   4   1    -1.32280828719554     1.32280828719554     0.00000000000000
[GTO]
1 0
 s    3 1.00
                 13.01   0.033498726389998
                 1.962    0.23480080117413
                0.4446     0.8136829578829
 s    1 1.00
                 0.122                   1
 p    1 1.00
                 0.727                   1

2 0
 s    3 1.00
                 13.01   0.033498726389998
                 1.962    0.23480080117413
                0.4446     0.8136829578829
 s    1 1.00
                 0.122                   1
 p    1 1.00
                 0.727                   1

3 0
 s    3 1.00
                 13.01   0.033498726389998
                 1.962    0.23480080117413
                0.4446     0.8136829578829
 s    1 1.00
                 0.122                   1
 p    1 1.00
                 0.727                   1

4 0
 s    3 1.00
                 13.01   0.033498726389998
                 1.962    0.23480080117413
                0.4446     0.8136829578829
 s    1 1.00
                 0.122                   1
 p    1 1.00
                 0.727                   1

[5d]
[7f]
[9g]

[MO]
 Sym= A
 Ene=               0
 Spin= Alpha
 Occup=    1.00000
   1     -0.27707836919065
   2    -0.080875248002547
   3    -4.6605747278796e-12
   4    -0.017604996698469
   5    -3.8722860494044e-18
   6     -0.27707836919065
   7    -0.080875248002544
   8    4.6604924330134e-12
   9     0.017604996698469
  10    7.5556103371959e-18
  11     -0.27984745866796
  12     -0.05476665606479
  13     0.018617756940257
  14    -2.3231812695353e-12
  15    -2.1567480452528e-18
  16     -0.27984745866797
  17    -0.054766656064788
  18    -0.018617756940257
  19    2.3233762267836e-12
  20    -3.1609019333149e-18
 Sym= A
 Ene=               1
 Spin= Alpha
 Occup=    1.00000
   1      0.42638743586975
   2      0.63179078352955
   3     1.99131985185e-07
   4     0.003018327121164
   5    -3.2432468668596e-19
   6     -0.42638743586975
   7     -0.63179078352956
   8    1.9913198517014e-07
   9    0.0030183271211635
  10    3.3269195057452e-18
  11    5.6136958764481e-06
  12    6.1872639419129e-06
  13    -4.0230848171238e-09
  14    -0.030422817342984
  15    -5.1576464388701e-18
  16    -5.6136958753993e-06
  17    -6.1872639329217e-06
  18    -4.0230847577528e-09
  19    -0.030422817342984
  20    -4.56894318852e-18
 Sym= A
 Ene=               2
 Spin= Alpha
 Occup=    0.00000
   1    4.8753703310379e-06
   2    7.2241848989225e-06
   3     -0.01741297505129
   4    3.4526819992756e-08
   5    4.8166447875481e-18
   6    -4.8753703416431e-06
   7    -7.2241849017238e-06
   8    -0.017412975051291
   9    3.4526819495005e-08
  10    4.2316634388866e-18
  11     -0.49095844850554
  12      -0.5411020347715
  13    0.00035132112997309
  14    -3.4792273647504e-07
  15    2.1821108353597e-17
  16      0.49095844850555
  17       0.5411020347715
  18    0.00035132112997301
  19    -3.4792273656885e-07
  20    1.334831564623e-18
 Sym= A
 Ene=               3
 Spin= Alpha
 Occup=    0.00000
   1      0.63202500175464
   2      0.62963559704171
   3    2.125801457196e-10
   4    -0.077499702641993
   5    1.219279646435e-16
   6      0.63202500175463
   7      0.62963559704171
   8    -2.1258063996245e-10
   9     0.077499702641993
  10    -1.3122894620952e-16
  11     -0.62646032233336
  12     -0.61507001652194
  13    -0.021957717447125
  14    -1.8791765606207e-10
  15    4.441893762074e-17
  16     -0.62646032233335
  17     -0.61507001652193
  18     0.021957717447125
  19    1.8791620406375e-10
  20    1.8847760967252e-17
