[Molden Format]
made by pyscf v[2.9.0]
[Atoms] (AU)
H   1   1     0.00000000000000     0.00000000000000     0.00000000000000
H   2   1     0.00000000000000     5.66917837369519     0.00000000000000
H   3   1     2.83458918684759     2.83458918684759     0.00000000000000
H   4   1    -2.83458918684759     2.83458918684759     0.00000000000000
[GTO]
1 0
 s    3 1.00
                 13.01   0.033498726389998
                 1.962    0.23480080117413
                0.4446     0.8136829578829
 s    1 1.00
                 0.122                   1
 p    1 1.00
                 0.727                   1

2 0
 s    3 1.00
                 13.01   0.033498726389998
                 1.962    0.23480080117413
                0.4446     0.8136829578829
 s    1 1.00
                 0.122                   1
 p    1 1.00
                 0.727                   1

3 0
 s    3 1.00
                 13.01   0.033498726389998
                 1.962    0.23480080117413
                0.4446     0.8136829578829
 s    1 1.00
                 0.122                   1
 p    1 1.00
                 0.727                   1

4 0
 s    3 1.00
                 13.01   0.033498726389998
                 1.962    0.23480080117413
                0.4446     0.8136829578829
 s    1 1.00
                 0.122                   1
 p    1 1.00
                 0.727                   1

[5d]
[7f]
[9g]

[MO]
 Sym= A
 Ene=               0
 Spin= Alpha
 Occup=    1.00000
   1     -0.25394487157151
   2     -0.20428937257759
   3    -3.79286626027e-08
   4    -0.0032062399199926
   5    -4.0208999983727e-17
   6     -0.25394487157151
   7     -0.20428937257759
   8    3.7928662627965e-08
   9    0.0032062399199924
  10    -4.873717933644e-18
  11     -0.25394527680517
  12     -0.20428973382869
  13    0.0032062374339664
  14    3.7929753968963e-08
  15    -1.2686261624106e-18
  16     -0.25394527680517
  17      -0.2042897338287
  18    -0.0032062374339664
  19    -3.7929753826324e-08
  20    -1.007145795727e-17
 Sym= A
 Ene=               1
 Spin= Alpha
 Occup=    1.00000
   1     -0.29670118717053
   2     -0.26312152634257
   3    -0.0025996993038474
   4    -5.3583130470729e-05
   5    -7.3025285363964e-18
   6      0.29670118717052
   7      0.26312152634258
   8    -0.0025996993038476
   9    -5.3583130470053e-05
  10    7.4232227153809e-18
  11     -0.29670017881542
  12     -0.26312063217102
  13    5.3582948628931e-05
  14     0.002599708139655
  15    4.2551268085874e-18
  16      0.29670017881542
  17      0.26312063217101
  18    5.3582948628999e-05
  19    0.0025997081396549
  20    1.3094986120634e-17
 Sym= A
 Ene=               2
 Spin= Alpha
 Occup=    0.00000
   1       0.2967013942079
   2      0.26311928690833
   3    -0.0025996195041639
   4    5.3477718018847e-05
   5    3.7551074531396e-17
   6     -0.29670139420789
   7     -0.26311928690834
   8    -0.0025996195041641
   9    5.3477718018202e-05
  10    -2.0408345409759e-18
  11     -0.29670240248334
  12     -0.26312018116834
  13    5.347790067063e-05
  14    -0.0025996106656164
  15    1.6709153690023e-18
  16      0.29670240248334
  17      0.26312018116836
  18    5.347790067034e-05
  19    -0.0025996106656166
  20    6.8362296810695e-18
 Sym= A
 Ene=               3
 Spin= Alpha
 Occup=    0.00000
   1      0.35008354367393
   2      0.31209799473643
   3    -8.5857225719444e-08
   4    -0.002148172754014
   5    -4.3775841952352e-18
   6       0.3500835436739
   7      0.31209799473646
   8    8.585722570393e-08
   9    0.0021481727540151
  10    8.7953502882074e-18
  11     -0.35008324982396
  12     -0.31209775819721
  13    -0.0021481764744152
  14    -8.5855408081541e-08
  15    -9.2487419894866e-18
  16     -0.35008324982396
  17     -0.31209775819721
  18    0.0021481764744153
  19    8.5855409107631e-08
  20    -1.5885019584854e-18
