[Molden Format]
made by pyscf v[2.9.0]
[Atoms] (AU)
H   1   1     0.00000000000000     0.00000000000000     0.00000000000000
H   2   1     0.00000000000000     4.25188378027139     2.45482624510269
H   3   1     0.00000000000000     0.00000000000000     4.90965249020538
[GTO]
1 0
 s    3 1.00
                 13.01   0.033498726389998
                 1.962    0.23480080117413
                0.4446     0.8136829578829
 s    1 1.00
                 0.122                   1
 p    1 1.00
                 0.727                   1

2 0
 s    3 1.00
                 13.01   0.033498726389998
                 1.962    0.23480080117413
                0.4446     0.8136829578829
 s    1 1.00
                 0.122                   1
 p    1 1.00
                 0.727                   1

3 0
 s    3 1.00
                 13.01   0.033498726389998
                 1.962    0.23480080117413
                0.4446     0.8136829578829
 s    1 1.00
                 0.122                   1
 p    1 1.00
                 0.727                   1

[5d]
[7f]
[9g]

[MO]
 Sym= A
 Ene=               0
 Spin= Alpha
 Occup=    1.00000
   1     -0.29269382506165
   2     -0.41809191559632
   3    -3.6505370628625e-18
   4    -0.0026155644498169
   5    -0.0085371281089342
   6    -0.034475383796135
   7    -0.043815178311661
   8    -4.5885458083973e-19
   9    0.0071926740999571
  10    -6.7959395254572e-10
  11     -0.29269391288219
  12      -0.4180920428666
  13    6.1965228011887e-18
  14    -0.0026155652989563
  15    0.0085371282145375
 Sym= A
 Ene=               1
 Spin= Alpha
 Occup=    1.00000
   1     0.072183287520431
   2        0.107674767048
   3    9.8078792444204e-18
   4    -0.0050285111701655
   5    -0.00059793725563185
   6     -0.45056070994752
   7     -0.65003615486648
   8    -1.0058908207261e-18
   9     0.006085638879196
  10    2.5097224254839e-08
  11     0.072186522349029
  12       0.1076794558006
  13    -5.4495746341391e-18
  14    -0.0050284799968986
  15    0.00059793344795731
 Sym= A
 Ene=               2
 Spin= Alpha
 Occup=    0.00000
   1      0.33662166806724
   2      0.48792458188196
   3    -4.1497477272776e-17
   4    0.0032447220129016
   5    0.00039680256536182
   6    -2.1603598219184e-06
   7    -3.1175933478964e-06
   8     1.76939972834e-18
   9    2.8300832467845e-08
  10    -0.0052230194881665
  11      -0.3366208979998
  12      -0.4879234381167
  13    6.8923151819212e-18
  14    -0.0032447696506375
  15    0.00039680608194733
