[Molden Format]
made by pyscf v[2.9.0]
[Atoms] (AU)
H   1   1     0.00000000000000     0.00000000000000     0.00000000000000
H   2   1    -0.48077359265834     0.86733852062905     0.00000000000000
H   3   1     0.48077359265834     0.86733852062905     0.00000000000000
[GTO]
1 0
 s    3 1.00
                 13.01   0.033498726389998
                 1.962    0.23480080117413
                0.4446     0.8136829578829
 s    1 1.00
                 0.122                   1
 p    1 1.00
                 0.727                   1

2 0
 s    3 1.00
                 13.01   0.033498726389998
                 1.962    0.23480080117413
                0.4446     0.8136829578829
 s    1 1.00
                 0.122                   1
 p    1 1.00
                 0.727                   1

3 0
 s    3 1.00
                 13.01   0.033498726389998
                 1.962    0.23480080117413
                0.4446     0.8136829578829
 s    1 1.00
                 0.122                   1
 p    1 1.00
                 0.727                   1

[5d]
[7f]
[9g]

[MO]
 Sym= A
 Ene=               0
 Spin= Alpha
 Occup=    1.00000
   1     -0.32272774811156
   2      0.01529838356181
   3    -2.5596794961385e-16
   4     -0.06533222215509
   5    -2.6519298208431e-19
   6     -0.34137270021365
   7    -0.013697586952792
   8     -0.06118419865718
   9     0.034540792298453
  10    -1.1715548100285e-18
  11     -0.34137270021365
  12    -0.013697586952783
  13     0.061184198657183
  14     0.034540792298452
  15    -1.7054296833513e-18
 Sym= A
 Ene=               1
 Spin= Alpha
 Occup=    1.00000
   1     -0.25215051804768
   2      -2.8237399535671
   3    -7.3437513922406e-15
   4      0.03685299891086
   5    1.0870043380568e-18
   6      0.12743465032682
   7       1.4000644339375
   8    0.0072658323315106
   9     0.050057226300219
  10    5.0186870468964e-19
  11      0.12743465032676
  12       1.4000644339367
  13    -0.0072658323315202
  14     0.050057226300222
  15    6.3383286057147e-19
 Sym= A
 Ene=               2
 Spin= Alpha
 Occup=    0.00000
   1    -1.9134550473436e-14
   2    -4.1579144632517e-13
   3     0.053229267426876
   4    1.2887390182275e-14
   5    -7.7903646416628e-18
   6     -0.20728502285598
   7      -2.5680081322213
   8     0.041381441413456
   9    0.0082669045723019
  10    3.6082992969581e-17
  11        0.207285022856
  12       2.5680081322217
  13     0.041381441413458
  14    -0.0082669045722795
  15    3.7062841738364e-18
