[Molden Format]
made by pyscf v[2.9.0]
[Atoms] (AU)
H   1   1     0.00000000000000     0.00000000000000     0.00000000000000
H   2   1    -0.68574918932849     5.58497896059396     0.00000000000000
H   3   1     1.41729459342380     0.37976294174490     0.00000000000000
[GTO]
1 0
 s    3 1.00
                 13.01   0.033498726389998
                 1.962    0.23480080117413
                0.4446     0.8136829578829
 s    1 1.00
                 0.122                   1
 p    1 1.00
                 0.727                   1

2 0
 s    3 1.00
                 13.01   0.033498726389998
                 1.962    0.23480080117413
                0.4446     0.8136829578829
 s    1 1.00
                 0.122                   1
 p    1 1.00
                 0.727                   1

3 0
 s    3 1.00
                 13.01   0.033498726389998
                 1.962    0.23480080117413
                0.4446     0.8136829578829
 s    1 1.00
                 0.122                   1
 p    1 1.00
                 0.727                   1

[5d]
[7f]
[9g]

[MO]
 Sym= A
 Ene=               0
 Spin= Alpha
 Occup=    1.00000
   1     -0.42332918537266
   2     -0.15817068712984
   3    -0.019085994561474
   4    -0.0051258445469769
   5    3.3308998445404e-18
   6    -0.0057846864398803
   7    -0.004061480918216
   8    5.1196653454021e-06
   9    -3.0336282067293e-05
  10    6.3070159625445e-18
  11     -0.42329310085343
  12     -0.15823114417146
  13     0.019099932536043
  14    0.0051007463331608
  15    -1.0801713516021e-18
 Sym= A
 Ene=               1
 Spin= Alpha
 Occup=    1.00000
   1       0.0222585891277
   2    0.0081138574284137
   3    0.00088208838651041
   4    -0.00067816996290895
   5    5.6836955050211e-18
   6     -0.58816449400915
   7     -0.50159814499764
   8    -0.0001566285905362
   9    0.00066435038987539
  10    9.6229661962316e-19
  11     0.022227964887648
  12    0.0078987780503174
  13    -0.00042468787463393
  14    -0.0010236588946065
  15    -7.8370551363161e-18
 Sym= A
 Ene=               2
 Spin= Alpha
 Occup=    0.00000
   1      0.40253480800783
   2       1.3722693557922
   3    -0.052188437352226
   4    -0.014100589985089
   5    9.2624980123718e-18
   6    0.0015712139091093
   7    -2.3486468042554e-05
   8    -0.0009413630918594
   9    -0.00020819191842061
  10    3.8855800008545e-18
  11     -0.40222417230975
  12      -1.3726246676988
  13     -0.05225260494336
  14    -0.013957331107443
  15    -5.0766876132869e-18
