[Molden Format]
made by pyscf v[2.9.0]
[Atoms] (AU)
H   1   1     0.00000000000000     0.00000000000000     0.00000000000000
H   2   1     0.00000000000000     0.85037675605428     0.49096524902054
H   3   1     0.00000000000000     0.00000000000000     0.98193049804108
[GTO]
1 0
 s    3 1.00
                 13.01   0.033498726389998
                 1.962    0.23480080117413
                0.4446     0.8136829578829
 s    1 1.00
                 0.122                   1
 p    1 1.00
                 0.727                   1

2 0
 s    3 1.00
                 13.01   0.033498726389998
                 1.962    0.23480080117413
                0.4446     0.8136829578829
 s    1 1.00
                 0.122                   1
 p    1 1.00
                 0.727                   1

3 0
 s    3 1.00
                 13.01   0.033498726389998
                 1.962    0.23480080117413
                0.4446     0.8136829578829
 s    1 1.00
                 0.122                   1
 p    1 1.00
                 0.727                   1

[5d]
[7f]
[9g]

[MO]
 Sym= A
 Ene=               0
 Spin= Alpha
 Occup=    1.00000
   1     -0.33686358190319
   2     0.011516508144058
   3    2.2088022484307e-17
   4    -0.041170410244628
   5    -0.070739902751481
   6     -0.33897322080293
   7    -0.0023973426527491
   8    1.7053973318011e-17
   9     0.081477018407039
  10    -1.4544825569818e-08
  11      -0.3368636896944
  12     0.011515797416335
  13    -6.5311828121081e-17
  14     -0.04117041337162
  15     0.070739879066494
 Sym= A
 Ene=               1
 Spin= Alpha
 Occup=    1.00000
   1     -0.32641322455015
   2       -2.153202721883
   3    1.1041048579147e-17
   4    -0.0094609488576808
   5     0.071735505333736
   6    1.6541610539152e-06
   7    1.1318401374241e-05
   8    1.3287217679266e-17
   9    3.1660183486379e-07
  10     0.088123002094972
  11      0.32641138642112
  12       2.1531914066335
  13    9.0067926464697e-18
  14    0.0094616866181536
  15     0.071735617109768
 Sym= A
 Ene=               2
 Spin= Alpha
 Occup=    0.00000
   1     -0.18970966020648
   2      -1.2431065069892
   3    -1.1780775091504e-17
   4     0.082507697676884
   5    -0.0097254928149158
   6      0.37564709343527
   7       2.4863051750298
   8    -1.7810463034825e-17
   9     0.066577253826081
  10    -4.0119649062885e-07
  11     -0.18971263195154
  12      -1.2431261123535
  13    2.6907958438608e-18
  14     0.082507611603588
  15    0.0097248396005731
