[Molden Format]
made by pyscf v[2.9.0]
[Atoms] (AU)
H   1   1     0.00000000000000     0.00000000000000     0.00000000000000
H   2   1     0.00000000000000     1.39839733217815     0.00000000000000
H   3   1     0.00000000000000     0.00000000000000     1.13383567473904
H   4   1     0.00000000000000     1.39839733217815     1.13383567473904
[GTO]
1 0
 s    6 1.00
           35.52322122  0.0091635962807908
           6.513143725    0.04936149294426
           1.822142904    0.16853830491455
           0.625955266    0.37056279973198
           0.243076747    0.41649152983594
           0.100112428    0.13033408411125

2 0
 s    6 1.00
           35.52322122  0.0091635962807908
           6.513143725    0.04936149294426
           1.822142904    0.16853830491455
           0.625955266    0.37056279973198
           0.243076747    0.41649152983594
           0.100112428    0.13033408411125

3 0
 s    6 1.00
           35.52322122  0.0091635962807908
           6.513143725    0.04936149294426
           1.822142904    0.16853830491455
           0.625955266    0.37056279973198
           0.243076747    0.41649152983594
           0.100112428    0.13033408411125

4 0
 s    6 1.00
           35.52322122  0.0091635962807908
           6.513143725    0.04936149294426
           1.822142904    0.16853830491455
           0.625955266    0.37056279973198
           0.243076747    0.41649152983594
           0.100112428    0.13033408411125

[5d]
[7f]
[9g]

[MO]
 Sym= A
 Ene=               0
 Spin= Alpha
 Occup=    1.00000
   1     -0.29180573059107
   2     -0.29180573059106
   3     -0.29180573059107
   4     -0.29180573059106
 Sym= A
 Ene=               1
 Spin= Alpha
 Occup=    1.00000
   1     -0.66423955914358
   2      0.66423955914358
   3     -0.66423955914358
   4      0.66423955914358
 Sym= A
 Ene=               2
 Spin= Alpha
 Occup=    0.00000
   1      0.80741192876193
   2      0.80741192876193
   3     -0.80741192876193
   4     -0.80741192876192
 Sym= A
 Ene=               3
 Spin= Alpha
 Occup=    0.00000
   1       1.4813889768318
   2      -1.4813889768318
   3      -1.4813889768318
   4       1.4813889768318
