[Molden Format]
made by pyscf v[2.9.0]
[Atoms] (AU)
H   1   1     0.00000000000000     0.00000000000000     0.00000000000000
H   2   1     0.00000000000000     1.39839733217815     0.00000000000000
H   3   1     0.00000000000000     0.00000000000000     0.94486306228253
H   4   1     0.00000000000000     1.39839733217815     0.94486306228253
[GTO]
1 0
 s    6 1.00
           35.52322122  0.0091635962807908
           6.513143725    0.04936149294426
           1.822142904    0.16853830491455
           0.625955266    0.37056279973198
           0.243076747    0.41649152983594
           0.100112428    0.13033408411125

2 0
 s    6 1.00
           35.52322122  0.0091635962807908
           6.513143725    0.04936149294426
           1.822142904    0.16853830491455
           0.625955266    0.37056279973198
           0.243076747    0.41649152983594
           0.100112428    0.13033408411125

3 0
 s    6 1.00
           35.52322122  0.0091635962807908
           6.513143725    0.04936149294426
           1.822142904    0.16853830491455
           0.625955266    0.37056279973198
           0.243076747    0.41649152983594
           0.100112428    0.13033408411125

4 0
 s    6 1.00
           35.52322122  0.0091635962807908
           6.513143725    0.04936149294426
           1.822142904    0.16853830491455
           0.625955266    0.37056279973198
           0.243076747    0.41649152983594
           0.100112428    0.13033408411125

[5d]
[7f]
[9g]

[MO]
 Sym= A
 Ene=               0
 Spin= Alpha
 Occup=    1.00000
   1      0.28695938168205
   2      0.28695938168205
   3      0.28695938168205
   4      0.28695938168205
 Sym= A
 Ene=               1
 Spin= Alpha
 Occup=    1.00000
   1       0.6490783277602
   2     -0.64907832776019
   3       0.6490783277602
   4      -0.6490783277602
 Sym= A
 Ene=               2
 Spin= Alpha
 Occup=    0.00000
   1       0.9390941045901
   2       0.9390941045901
   3      -0.9390941045901
   4     -0.93909410459009
 Sym= A
 Ene=               3
 Spin= Alpha
 Occup=    0.00000
   1       -1.693785910526
   2        1.693785910526
   3        1.693785910526
   4       -1.693785910526
