[Molden Format]
made by pyscf v[2.9.0]
[Atoms] (AU)
H   1   1     0.00000000000000     0.00000000000000     0.00000000000000
H   2   1     0.00000000000000     1.39839733217815     0.00000000000000
H   3   1     0.00000000000000     0.00000000000000     3.77945224913012
H   4   1     0.00000000000000     1.39839733217815     3.77945224913012
[GTO]
1 0
 s    6 1.00
           35.52322122  0.0091635962807908
           6.513143725    0.04936149294426
           1.822142904    0.16853830491455
           0.625955266    0.37056279973198
           0.243076747    0.41649152983594
           0.100112428    0.13033408411125

2 0
 s    6 1.00
           35.52322122  0.0091635962807908
           6.513143725    0.04936149294426
           1.822142904    0.16853830491455
           0.625955266    0.37056279973198
           0.243076747    0.41649152983594
           0.100112428    0.13033408411125

3 0
 s    6 1.00
           35.52322122  0.0091635962807908
           6.513143725    0.04936149294426
           1.822142904    0.16853830491455
           0.625955266    0.37056279973198
           0.243076747    0.41649152983594
           0.100112428    0.13033408411125

4 0
 s    6 1.00
           35.52322122  0.0091635962807908
           6.513143725    0.04936149294426
           1.822142904    0.16853830491455
           0.625955266    0.37056279973198
           0.243076747    0.41649152983594
           0.100112428    0.13033408411125

[5d]
[7f]
[9g]

[MO]
 Sym= A
 Ene=               0
 Spin= Alpha
 Occup=    1.00000
   1      0.55241721516578
   2      0.55241798142314
   3    -0.036212073614391
   4    -0.036212099699294
 Sym= A
 Ene=               1
 Spin= Alpha
 Occup=    1.00000
   1      -1.2143076268108
   2        1.214307278222
   3     0.041337417241645
   4    -0.041337394390942
 Sym= A
 Ene=               2
 Spin= Alpha
 Occup=    0.00000
   1    -0.036212073614391
   2    -0.036212099699293
   3      0.55241721516578
   4      0.55241798142314
 Sym= A
 Ene=               3
 Spin= Alpha
 Occup=    0.00000
   1     0.041337417241645
   2    -0.041337394390942
   3      -1.2143076268108
   4        1.214307278222
