[Molden Format]
made by pyscf v[2.9.0]
[Atoms] (AU)
H   1   1     0.00000000000000     0.00000000000000     0.00000000000000
H   2   1     0.00000000000000     1.39839733217815     0.00000000000000
H   3   1     0.00000000000000     0.00000000000000     1.13383567473904
H   4   1     0.00000000000000     1.39839733217815     1.13383567473904
[GTO]
1 0
 s    6 1.00
           35.52322122  0.0091635962807908
           6.513143725    0.04936149294426
           1.822142904    0.16853830491455
           0.625955266    0.37056279973198
           0.243076747    0.41649152983594
           0.100112428    0.13033408411125

2 0
 s    6 1.00
           35.52322122  0.0091635962807908
           6.513143725    0.04936149294426
           1.822142904    0.16853830491455
           0.625955266    0.37056279973198
           0.243076747    0.41649152983594
           0.100112428    0.13033408411125

3 0
 s    6 1.00
           35.52322122  0.0091635962807908
           6.513143725    0.04936149294426
           1.822142904    0.16853830491455
           0.625955266    0.37056279973198
           0.243076747    0.41649152983594
           0.100112428    0.13033408411125

4 0
 s    6 1.00
           35.52322122  0.0091635962807908
           6.513143725    0.04936149294426
           1.822142904    0.16853830491455
           0.625955266    0.37056279973198
           0.243076747    0.41649152983594
           0.100112428    0.13033408411125

[5d]
[7f]
[9g]

[MO]
 Sym= A
 Ene=               0
 Spin= Alpha
 Occup=    1.00000
   1     -0.77726210273659
   2     -0.77726641911728
   3      0.36458860207851
   4      0.36458867621566
 Sym= A
 Ene=               1
 Spin= Alpha
 Occup=    1.00000
   1      -1.5171899930638
   2       1.5171869823238
   3      0.57781296743594
   4      -0.5778108215453
 Sym= A
 Ene=               2
 Spin= Alpha
 Occup=    0.00000
   1     -0.36458867621566
   2     -0.36458860207852
   3      0.77726641911728
   4       0.7772621027366
 Sym= A
 Ene=               3
 Spin= Alpha
 Occup=    0.00000
   1      0.57781082154531
   2     -0.57781296743594
   3      -1.5171869823238
   4       1.5171899930638
