[Molden Format]
made by pyscf v[2.9.0]
[Atoms] (AU)
H   1   1     0.00000000000000     0.00000000000000     0.00000000000000
H   2   1     0.00000000000000     1.39839733217815     0.00000000000000
H   3   1     0.00000000000000     0.00000000000000     0.94486306228253
H   4   1     0.00000000000000     1.39839733217815     0.94486306228253
[GTO]
1 0
 s    6 1.00
           35.52322122  0.0091635962807908
           6.513143725    0.04936149294426
           1.822142904    0.16853830491455
           0.625955266    0.37056279973198
           0.243076747    0.41649152983594
           0.100112428    0.13033408411125

2 0
 s    6 1.00
           35.52322122  0.0091635962807908
           6.513143725    0.04936149294426
           1.822142904    0.16853830491455
           0.625955266    0.37056279973198
           0.243076747    0.41649152983594
           0.100112428    0.13033408411125

3 0
 s    6 1.00
           35.52322122  0.0091635962807908
           6.513143725    0.04936149294426
           1.822142904    0.16853830491455
           0.625955266    0.37056279973198
           0.243076747    0.41649152983594
           0.100112428    0.13033408411125

4 0
 s    6 1.00
           35.52322122  0.0091635962807908
           6.513143725    0.04936149294426
           1.822142904    0.16853830491455
           0.625955266    0.37056279973198
           0.243076747    0.41649152983594
           0.100112428    0.13033408411125

[5d]
[7f]
[9g]

[MO]
 Sym= A
 Ene=               0
 Spin= Alpha
 Occup=    1.00000
   1     -0.86694635262764
   2      -0.8669551158471
   3      0.46112670583634
   4      0.46113106379085
 Sym= A
 Ene=               1
 Spin= Alpha
 Occup=    1.00000
   1      -1.6566574958902
   2       1.6566528846814
   3      0.73872114794181
   4     -0.73871848431321
 Sym= A
 Ene=               2
 Spin= Alpha
 Occup=    0.00000
   1      0.46112670583633
   2      0.46113106379083
   3     -0.86694635262763
   4      -0.8669551158471
 Sym= A
 Ene=               3
 Spin= Alpha
 Occup=    0.00000
   1      0.73872114794182
   2     -0.73871848431321
   3      -1.6566574958902
   4       1.6566528846814
